
     Program PWSCF v.7.1 starts on 13Mar2026 at 17:46:44 

     This program is part of the open-source Quantum ESPRESSO suite
     for quantum simulation of materials; please cite
         "P. Giannozzi et al., J. Phys.:Condens. Matter 21 395502 (2009);
         "P. Giannozzi et al., J. Phys.:Condens. Matter 29 465901 (2017);
         "P. Giannozzi et al., J. Chem. Phys. 152 154105 (2020);
          URL http://www.quantum-espresso.org", 
     in publications or presentations arising from this work. More details at
     http://www.quantum-espresso.org/quote

     Parallel version (MPI), running on     8 processors

     MPI processes distributed on     1 nodes
     11547 MiB available memory on the printing compute node when the environment starts
 
     Waiting for input...
     Reading input from standard input

     Current dimensions of program PWSCF are:
     Max number of different atomic species (ntypx) = 10
     Max number of k-points (npk) =  40000
     Max angular momentum in pseudopotentials (lmaxx) =  4
     file Si.pbe-n-kjpaw_psl.1.0.0.UPF: wavefunction(s)  3S 3P renormalized
 
     R & G space division:  proc/nbgrp/npool/nimage =       8
     Subspace diagonalization in iterative solution of the eigenvalue problem:
     a serial algorithm will be used

 
     Parallelization info
     --------------------
     sticks:   dense  smooth     PW     G-vecs:    dense   smooth      PW
     Min          54      54     18                  771      771     153
     Max          55      55     19                  775      775     156
     Sum         439     439    151                 6183     6183    1243
 
     Using Slab Decomposition
 


     bravais-lattice index     =            2
     lattice parameter (alat)  =      10.3500  a.u.
     unit-cell volume          =     277.1795 (a.u.)^3
     number of atoms/cell      =            2
     number of atomic types    =            1
     number of electrons       =         8.00
     number of Kohn-Sham states=            4
     kinetic-energy cutoff     =      30.0000  Ry
     charge density cutoff     =     120.0000  Ry
     scf convergence threshold =      1.0E-06
     mixing beta               =       0.6000
     number of iterations used =            8  plain     mixing
     Exchange-correlation= SLA  PW   PBX  PBC
                           (   1   4   3   4   0   0   0)

     celldm(1)=  10.350000  celldm(2)=   0.000000  celldm(3)=   0.000000
     celldm(4)=   0.000000  celldm(5)=   0.000000  celldm(6)=   0.000000

     crystal axes: (cart. coord. in units of alat)
               a(1) = (  -0.500000   0.000000   0.500000 )  
               a(2) = (   0.000000   0.500000   0.500000 )  
               a(3) = (  -0.500000   0.500000   0.000000 )  

     reciprocal axes: (cart. coord. in units 2 pi/alat)
               b(1) = ( -1.000000 -1.000000  1.000000 )  
               b(2) = (  1.000000  1.000000  1.000000 )  
               b(3) = ( -1.000000  1.000000 -1.000000 )  


     PseudoPot. # 1 for Si read from file:
     /home/karan/pseudos/Si.pbe-n-kjpaw_psl.1.0.0.UPF
     MD5 check sum: c39c59da582df4a0d9f10159256ea34e
     Pseudo is Projector augmented-wave + core cor, Zval =  4.0
     Generated using &quot;atomic&quot; code by A. Dal Corso  v.6.3
     Shape of augmentation charge: PSQ
     Using radial grid of 1141 points,  6 beta functions with: 
                l(1) =   0
                l(2) =   0
                l(3) =   1
                l(4) =   1
                l(5) =   2
                l(6) =   2
     Q(r) pseudized with 0 coefficients 


     atomic species   valence    mass     pseudopotential
        Si             4.00    28.08600     Si( 1.00)

     48 Sym. Ops., with inversion, found (24 have fractional translation)



   Cartesian axes

     site n.     atom                  positions (alat units)
         1           Si  tau(   1) = (   0.0000000   0.0000000   0.0000000  )
         2           Si  tau(   2) = (   0.2500000   0.2500000   0.2500000  )

     number of k points=   570

     Number of k-points >= 100: set verbosity='high' to print them.

     Dense  grid:     6183 G-vectors     FFT dimensions: (  32,  32,  32)

     Estimated max dynamical RAM per process >       7.10 MB

     Estimated total dynamical RAM >      56.79 MB

     Check: negative core charge=   -0.000003

     Initial potential from superposition of free atoms

     starting charge       7.9989, renormalised to       8.0000
     Starting wfcs are    8 randomized atomic wfcs
     Checking if some PAW data can be deallocated... 

     total cpu time spent up to now is        0.4 secs

     Self-consistent Calculation

     iteration #  1     ecut=    30.00 Ry     beta= 0.60
     Davidson diagonalization with overlap
     ethr =  1.00E-02,  avg # of iterations =  2.0

     Threshold (ethr) on eigenvalues was too large:
     Diagonalizing with lowered threshold

     Davidson diagonalization with overlap
     ethr =  5.96E-04,  avg # of iterations =  1.4

     total cpu time spent up to now is        2.0 secs

     total energy              =     -93.45179300 Ry
     estimated scf accuracy    <       0.05168875 Ry

     iteration #  2     ecut=    30.00 Ry     beta= 0.60
     Davidson diagonalization with overlap
     ethr =  6.46E-04,  avg # of iterations =  1.0

     total cpu time spent up to now is        2.7 secs

     total energy              =     -93.45243937 Ry
     estimated scf accuracy    <       0.00600039 Ry

     iteration #  3     ecut=    30.00 Ry     beta= 0.60
     Davidson diagonalization with overlap
     ethr =  7.50E-05,  avg # of iterations =  2.0

     total cpu time spent up to now is        3.7 secs

     total energy              =     -93.45331566 Ry
     estimated scf accuracy    <       0.00013584 Ry

     iteration #  4     ecut=    30.00 Ry     beta= 0.60
     Davidson diagonalization with overlap
     ethr =  1.70E-06,  avg # of iterations =  4.6

     total cpu time spent up to now is        4.8 secs

     total energy              =     -93.45343225 Ry
     estimated scf accuracy    <       0.00001448 Ry

     iteration #  5     ecut=    30.00 Ry     beta= 0.60
     Davidson diagonalization with overlap
     ethr =  1.81E-07,  avg # of iterations =  3.7

     total cpu time spent up to now is        5.9 secs

     End of self-consistent calculation

     Number of k-points >= 100: set verbosity='high' to print the bands.

     highest occupied level (ev):     5.9248

!    total energy              =     -93.45343882 Ry
     total all-electron energy =     -1160.145169 Ry
     estimated scf accuracy    <       0.00000043 Ry

     The total energy is the sum of the following terms:
     one-electron contribution =       5.53875505 Ry
     hartree contribution      =       1.12287911 Ry
     xc contribution           =     -12.27762204 Ry
     ewald contribution        =     -16.65483457 Ry
     one-center paw contrib.   =     -71.18261637 Ry

     convergence has been achieved in   5 iterations

     Writing all to output data dir ./silicon.save/
 
     init_run     :      0.29s CPU      0.33s WALL (       1 calls)
     electrons    :      5.20s CPU      5.51s WALL (       1 calls)

     Called by init_run:
     wfcinit      :      0.23s CPU      0.24s WALL (       1 calls)
     potinit      :      0.04s CPU      0.06s WALL (       1 calls)
     hinit0       :      0.01s CPU      0.02s WALL (       1 calls)

     Called by electrons:
     c_bands      :      4.41s CPU      4.65s WALL (       6 calls)
     sum_band     :      0.51s CPU      0.52s WALL (       6 calls)
     v_of_rho     :      0.01s CPU      0.01s WALL (       6 calls)
     newd         :      0.01s CPU      0.02s WALL (       6 calls)
     PAW_pot      :      0.30s CPU      0.37s WALL (       6 calls)
     mix_rho      :      0.00s CPU      0.00s WALL (       6 calls)

     Called by c_bands:
     init_us_2    :      0.14s CPU      0.15s WALL (    7410 calls)
     init_us_2:cp :      0.14s CPU      0.14s WALL (    7410 calls)
     cegterg      :      2.62s CPU      2.77s WALL (    3420 calls)

     Called by *egterg:
     cdiaghg      :      0.24s CPU      0.26s WALL (   11243 calls)
     h_psi        :      2.07s CPU      2.19s WALL (   12383 calls)
     s_psi        :      0.08s CPU      0.08s WALL (   12383 calls)
     g_psi        :      0.01s CPU      0.01s WALL (    8393 calls)

     Called by h_psi:
     h_psi:calbec :      0.17s CPU      0.18s WALL (   12383 calls)
     vloc_psi     :      1.77s CPU      1.87s WALL (   12383 calls)
     add_vuspsi   :      0.09s CPU      0.09s WALL (   12383 calls)

     General routines
     calbec       :      0.21s CPU      0.22s WALL (   15803 calls)
     fft          :      0.00s CPU      0.00s WALL (      67 calls)
     ffts         :      0.00s CPU      0.00s WALL (       6 calls)
     fftw         :      1.81s CPU      1.90s WALL (  102022 calls)
 
     Parallel routines
 
     PWSCF        :      5.66s CPU      6.09s WALL

 
   This run was terminated on:  17:46:50  13Mar2026            

=------------------------------------------------------------------------------=
   JOB DONE.
=------------------------------------------------------------------------------=
