
     Program PWSCF v.7.1 starts on 13Mar2026 at 17:46:28 

     This program is part of the open-source Quantum ESPRESSO suite
     for quantum simulation of materials; please cite
         "P. Giannozzi et al., J. Phys.:Condens. Matter 21 395502 (2009);
         "P. Giannozzi et al., J. Phys.:Condens. Matter 29 465901 (2017);
         "P. Giannozzi et al., J. Chem. Phys. 152 154105 (2020);
          URL http://www.quantum-espresso.org", 
     in publications or presentations arising from this work. More details at
     http://www.quantum-espresso.org/quote

     Parallel version (MPI), running on     8 processors

     MPI processes distributed on     1 nodes
     11541 MiB available memory on the printing compute node when the environment starts
 
     Waiting for input...
     Reading input from standard input

     Current dimensions of program PWSCF are:
     Max number of different atomic species (ntypx) = 10
     Max number of k-points (npk) =  40000
     Max angular momentum in pseudopotentials (lmaxx) =  4
     file Si.pbe-n-kjpaw_psl.1.0.0.UPF: wavefunction(s)  3S 3P renormalized
 
     R & G space division:  proc/nbgrp/npool/nimage =       8
     Subspace diagonalization in iterative solution of the eigenvalue problem:
     a serial algorithm will be used

 
     Parallelization info
     --------------------
     sticks:   dense  smooth     PW     G-vecs:    dense   smooth      PW
     Min          54      54     18                  771      771     153
     Max          55      55     19                  775      775     156
     Sum         439     439    151                 6183     6183    1243
 
     Using Slab Decomposition
 


     bravais-lattice index     =            2
     lattice parameter (alat)  =      10.3500  a.u.
     unit-cell volume          =     277.1795 (a.u.)^3
     number of atoms/cell      =            2
     number of atomic types    =            1
     number of electrons       =         8.00
     number of Kohn-Sham states=            4
     kinetic-energy cutoff     =      30.0000  Ry
     charge density cutoff     =     120.0000  Ry
     scf convergence threshold =      1.0E-06
     mixing beta               =       0.6000
     number of iterations used =            8  plain     mixing
     Exchange-correlation= SLA  PW   PBX  PBC
                           (   1   4   3   4   0   0   0)

     celldm(1)=  10.350000  celldm(2)=   0.000000  celldm(3)=   0.000000
     celldm(4)=   0.000000  celldm(5)=   0.000000  celldm(6)=   0.000000

     crystal axes: (cart. coord. in units of alat)
               a(1) = (  -0.500000   0.000000   0.500000 )  
               a(2) = (   0.000000   0.500000   0.500000 )  
               a(3) = (  -0.500000   0.500000   0.000000 )  

     reciprocal axes: (cart. coord. in units 2 pi/alat)
               b(1) = ( -1.000000 -1.000000  1.000000 )  
               b(2) = (  1.000000  1.000000  1.000000 )  
               b(3) = ( -1.000000  1.000000 -1.000000 )  


     PseudoPot. # 1 for Si read from file:
     /home/karan/pseudos/Si.pbe-n-kjpaw_psl.1.0.0.UPF
     MD5 check sum: c39c59da582df4a0d9f10159256ea34e
     Pseudo is Projector augmented-wave + core cor, Zval =  4.0
     Generated using &quot;atomic&quot; code by A. Dal Corso  v.6.3
     Shape of augmentation charge: PSQ
     Using radial grid of 1141 points,  6 beta functions with: 
                l(1) =   0
                l(2) =   0
                l(3) =   1
                l(4) =   1
                l(5) =   2
                l(6) =   2
     Q(r) pseudized with 0 coefficients 


     atomic species   valence    mass     pseudopotential
        Si             4.00    28.08600     Si( 1.00)

     48 Sym. Ops., with inversion, found (24 have fractional translation)



   Cartesian axes

     site n.     atom                  positions (alat units)
         1           Si  tau(   1) = (   0.0000000   0.0000000   0.0000000  )
         2           Si  tau(   2) = (   0.2500000   0.2500000   0.2500000  )

     number of k points=    60
                       cart. coord. in units 2pi/alat
        k(    1) = (  -0.0625000   0.0625000   0.0625000), wk =   0.0078125
        k(    2) = (  -0.1875000   0.1875000  -0.0625000), wk =   0.0234375
        k(    3) = (  -0.3125000   0.3125000  -0.1875000), wk =   0.0234375
        k(    4) = (  -0.4375000   0.4375000  -0.3125000), wk =   0.0234375
        k(    5) = (   0.4375000  -0.4375000   0.5625000), wk =   0.0234375
        k(    6) = (   0.3125000  -0.3125000   0.4375000), wk =   0.0234375
        k(    7) = (   0.1875000  -0.1875000   0.3125000), wk =   0.0234375
        k(    8) = (   0.0625000  -0.0625000   0.1875000), wk =   0.0234375
        k(    9) = (  -0.0625000   0.3125000   0.0625000), wk =   0.0234375
        k(   10) = (  -0.1875000   0.4375000  -0.0625000), wk =   0.0468750
        k(   11) = (  -0.3125000   0.5625000  -0.1875000), wk =   0.0468750
        k(   12) = (   0.5625000  -0.3125000   0.6875000), wk =   0.0468750
        k(   13) = (   0.4375000  -0.1875000   0.5625000), wk =   0.0468750
        k(   14) = (   0.3125000  -0.0625000   0.4375000), wk =   0.0468750
        k(   15) = (   0.1875000   0.0625000   0.3125000), wk =   0.0468750
        k(   16) = (  -0.0625000   0.5625000   0.0625000), wk =   0.0234375
        k(   17) = (  -0.1875000   0.6875000  -0.0625000), wk =   0.0468750
        k(   18) = (   0.6875000  -0.1875000   0.8125000), wk =   0.0468750
        k(   19) = (   0.5625000  -0.0625000   0.6875000), wk =   0.0468750
        k(   20) = (   0.4375000   0.0625000   0.5625000), wk =   0.0468750
        k(   21) = (   0.3125000   0.1875000   0.4375000), wk =   0.0468750
        k(   22) = (  -0.0625000   0.8125000   0.0625000), wk =   0.0234375
        k(   23) = (   0.8125000  -0.0625000   0.9375000), wk =   0.0468750
        k(   24) = (   0.6875000   0.0625000   0.8125000), wk =   0.0468750
        k(   25) = (   0.5625000   0.1875000   0.6875000), wk =   0.0468750
        k(   26) = (   0.4375000   0.3125000   0.5625000), wk =   0.0468750
        k(   27) = (  -0.0625000  -0.9375000   0.0625000), wk =   0.0234375
        k(   28) = (  -0.1875000  -0.8125000  -0.0625000), wk =   0.0468750
        k(   29) = (  -0.3125000  -0.6875000  -0.1875000), wk =   0.0468750
        k(   30) = (  -0.0625000  -0.6875000   0.0625000), wk =   0.0234375
        k(   31) = (  -0.1875000  -0.5625000  -0.0625000), wk =   0.0468750
        k(   32) = (  -0.0625000  -0.4375000   0.0625000), wk =   0.0234375
        k(   33) = (  -0.1875000   0.1875000   0.1875000), wk =   0.0078125
        k(   34) = (  -0.3125000   0.3125000   0.0625000), wk =   0.0234375
        k(   35) = (  -0.4375000   0.4375000  -0.0625000), wk =   0.0234375
        k(   36) = (   0.4375000  -0.4375000   0.8125000), wk =   0.0234375
        k(   37) = (   0.3125000  -0.3125000   0.6875000), wk =   0.0234375
        k(   38) = (   0.1875000  -0.1875000   0.5625000), wk =   0.0234375
        k(   39) = (  -0.1875000   0.4375000   0.1875000), wk =   0.0234375
        k(   40) = (  -0.3125000   0.5625000   0.0625000), wk =   0.0468750
        k(   41) = (   0.5625000  -0.3125000   0.9375000), wk =   0.0468750
        k(   42) = (   0.4375000  -0.1875000   0.8125000), wk =   0.0468750
        k(   43) = (   0.3125000  -0.0625000   0.6875000), wk =   0.0468750
        k(   44) = (  -0.1875000   0.6875000   0.1875000), wk =   0.0234375
        k(   45) = (   0.6875000  -0.1875000   1.0625000), wk =   0.0468750
        k(   46) = (   0.5625000  -0.0625000   0.9375000), wk =   0.0468750
        k(   47) = (   0.4375000   0.0625000   0.8125000), wk =   0.0468750
        k(   48) = (  -0.1875000  -1.0625000   0.1875000), wk =   0.0234375
        k(   49) = (  -0.3125000  -0.9375000   0.0625000), wk =   0.0468750
        k(   50) = (  -0.1875000  -0.8125000   0.1875000), wk =   0.0234375
        k(   51) = (  -0.3125000   0.3125000   0.3125000), wk =   0.0078125
        k(   52) = (  -0.4375000   0.4375000   0.1875000), wk =   0.0234375
        k(   53) = (   0.4375000  -0.4375000   1.0625000), wk =   0.0234375
        k(   54) = (   0.3125000  -0.3125000   0.9375000), wk =   0.0234375
        k(   55) = (  -0.3125000   0.5625000   0.3125000), wk =   0.0234375
        k(   56) = (   0.5625000  -0.3125000   1.1875000), wk =   0.0468750
        k(   57) = (   0.4375000  -0.1875000   1.0625000), wk =   0.0468750
        k(   58) = (  -0.3125000  -1.1875000   0.3125000), wk =   0.0234375
        k(   59) = (  -0.4375000   0.4375000   0.4375000), wk =   0.0078125
        k(   60) = (   0.4375000  -0.4375000   1.3125000), wk =   0.0234375

     Dense  grid:     6183 G-vectors     FFT dimensions: (  32,  32,  32)

     Estimated max dynamical RAM per process >       4.11 MB

     Estimated total dynamical RAM >      32.89 MB

     Check: negative core charge=   -0.000003

     Initial potential from superposition of free atoms

     starting charge       7.9989, renormalised to       8.0000
     Starting wfcs are    8 randomized atomic wfcs
     Checking if some PAW data can be deallocated... 

     total cpu time spent up to now is        0.2 secs

     Self-consistent Calculation

     iteration #  1     ecut=    30.00 Ry     beta= 0.60
     Davidson diagonalization with overlap
     ethr =  1.00E-02,  avg # of iterations =  2.0

     Threshold (ethr) on eigenvalues was too large:
     Diagonalizing with lowered threshold

     Davidson diagonalization with overlap
     ethr =  5.97E-04,  avg # of iterations =  1.5

     total cpu time spent up to now is        0.4 secs

     total energy              =     -93.45179762 Ry
     estimated scf accuracy    <       0.05168679 Ry

     iteration #  2     ecut=    30.00 Ry     beta= 0.60
     Davidson diagonalization with overlap
     ethr =  6.46E-04,  avg # of iterations =  1.0

     total cpu time spent up to now is        0.6 secs

     total energy              =     -93.45244730 Ry
     estimated scf accuracy    <       0.00599523 Ry

     iteration #  3     ecut=    30.00 Ry     beta= 0.60
     Davidson diagonalization with overlap
     ethr =  7.49E-05,  avg # of iterations =  2.0

     total cpu time spent up to now is        0.7 secs

     total energy              =     -93.45331170 Ry
     estimated scf accuracy    <       0.00013290 Ry

     iteration #  4     ecut=    30.00 Ry     beta= 0.60
     Davidson diagonalization with overlap
     ethr =  1.66E-06,  avg # of iterations =  4.7

     total cpu time spent up to now is        0.9 secs

     total energy              =     -93.45343255 Ry
     estimated scf accuracy    <       0.00001156 Ry

     iteration #  5     ecut=    30.00 Ry     beta= 0.60
     Davidson diagonalization with overlap
     ethr =  1.45E-07,  avg # of iterations =  4.0

     total cpu time spent up to now is        1.0 secs

     End of self-consistent calculation

          k =-0.0625 0.0625 0.0625 (   749 PWs)   bands (ev):

    -5.7984   5.4084   5.8595   5.8595

          k =-0.1875 0.1875-0.0625 (   774 PWs)   bands (ev):

    -5.5332   3.9083   5.0605   5.7422

          k =-0.3125 0.3125-0.1875 (   775 PWs)   bands (ev):

    -4.8934   1.7021   4.5758   5.2840

          k =-0.4375 0.4375-0.3125 (   771 PWs)   bands (ev):

    -4.0021  -0.1652   4.3604   4.8807

          k = 0.4375-0.4375 0.5625 (   773 PWs)   bands (ev):

    -3.5604  -0.8568   4.4090   4.6647

          k = 0.3125-0.3125 0.4375 (   768 PWs)   bands (ev):

    -4.3071   0.3866   4.6857   4.6930

          k = 0.1875-0.1875 0.3125 (   776 PWs)   bands (ev):

    -5.1442   2.4253   4.9597   5.1536

          k = 0.0625-0.0625 0.1875 (   765 PWs)   bands (ev):

    -5.6651   4.6572   5.4373   5.5931

          k =-0.0625 0.3125 0.0625 (   779 PWs)   bands (ev):

    -5.3998   3.7638   4.8849   4.9656

          k =-0.1875 0.4375-0.0625 (   774 PWs)   bands (ev):

    -4.8810   2.2733   3.9239   4.7097

          k =-0.3125 0.5625-0.1875 (   773 PWs)   bands (ev):

    -4.0457   0.4351   3.4305   4.3040

          k = 0.5625-0.3125 0.6875 (   770 PWs)   bands (ev):

    -3.2945  -0.7592   3.1435   4.2121

          k = 0.4375-0.1875 0.5625 (   772 PWs)   bands (ev):

    -3.7459  -0.0781   3.0721   4.4937

          k = 0.3125-0.0625 0.4375 (   773 PWs)   bands (ev):

    -4.6358   1.6302   3.3737   4.9961

          k = 0.1875 0.0625 0.3125 (   777 PWs)   bands (ev):

    -5.2708   3.0956   4.4890   5.3656

          k =-0.0625 0.5625 0.0625 (   773 PWs)   bands (ev):

    -4.4846   1.7686   3.7839   3.9045

          k =-0.1875 0.6875-0.0625 (   771 PWs)   bands (ev):

    -3.7411   0.5427   3.0054   3.5614

          k = 0.6875-0.1875 0.8125 (   765 PWs)   bands (ev):

    -2.8542  -0.6408   2.1740   3.5301

          k = 0.5625-0.0625 0.6875 (   765 PWs)   bands (ev):

    -2.9252  -0.5476   1.8256   3.8707

          k = 0.4375 0.0625 0.5625 (   771 PWs)   bands (ev):

    -3.8107   0.3976   2.4222   4.4499

          k = 0.3125 0.1875 0.4375 (   775 PWs)   bands (ev):

    -4.5240   1.0342   4.0367   4.8977

          k =-0.0625 0.8125 0.0625 (   767 PWs)   bands (ev):

    -3.0943  -0.3126   3.1024   3.3167

          k = 0.8125-0.0625 0.9375 (   763 PWs)   bands (ev):

    -2.1943  -1.2924   2.5514   3.0762

          k = 0.6875 0.0625 0.8125 (   762 PWs)   bands (ev):

    -2.2920  -1.1272   1.8307   3.3880

          k = 0.5625 0.1875 0.6875 (   767 PWs)   bands (ev):

    -3.0412  -0.7173   2.3730   3.9831

          k = 0.4375 0.3125 0.5625 (   772 PWs)   bands (ev):

    -3.6433  -0.5644   3.8624   4.5654

          k =-0.0625-0.9375 0.0625 (   769 PWs)   bands (ev):

    -2.2448  -1.3095   2.9660   3.1966

          k =-0.1875-0.8125-0.0625 (   767 PWs)   bands (ev):

    -3.0099  -0.3758   2.7069   3.2343

          k =-0.3125-0.6875-0.1875 (   772 PWs)   bands (ev):

    -3.4768  -0.1118   2.7646   3.8274

          k =-0.0625-0.6875 0.0625 (   774 PWs)   bands (ev):

    -3.8449   0.7232   3.3752   3.5545

          k =-0.1875-0.5625-0.0625 (   772 PWs)   bands (ev):

    -4.3685   1.4283   3.4205   4.0653

          k =-0.0625-0.4375 0.0625 (   775 PWs)   bands (ev):

    -5.0049   2.7921   4.3233   4.3556

          k =-0.1875 0.1875 0.1875 (   779 PWs)   bands (ev):

    -5.4030   3.1908   5.4219   5.4219

          k =-0.3125 0.3125 0.0625 (   773 PWs)   bands (ev):

    -5.0148   2.3540   3.9216   5.4398

          k =-0.4375 0.4375-0.0625 (   777 PWs)   bands (ev):

    -4.2755   0.9946   2.8504   4.9391

          k = 0.4375-0.4375 0.8125 (   769 PWs)   bands (ev):

    -3.3914  -0.4781   2.6973   4.4126

          k = 0.3125-0.3125 0.6875 (   770 PWs)   bands (ev):

    -3.3760  -0.5062   2.9935   4.0976

          k = 0.1875-0.1875 0.5625 (   773 PWs)   bands (ev):

    -4.2587   0.9911   3.6010   4.0740

          k =-0.1875 0.4375 0.1875 (   778 PWs)   bands (ev):

    -4.7607   1.6943   4.4208   4.4888

          k =-0.3125 0.5625 0.0625 (   771 PWs)   bands (ev):

    -4.1407   0.9274   2.9067   4.2948

          k = 0.5625-0.3125 0.9375 (   765 PWs)   bands (ev):

    -3.2591  -0.1659   2.1250   3.7325

          k = 0.4375-0.1875 0.8125 (   766 PWs)   bands (ev):

    -2.7773  -0.7726   2.1277   3.4229

          k = 0.3125-0.0625 0.6875 (   768 PWs)   bands (ev):

    -3.5405   0.2215   2.5468   3.6002

          k =-0.1875 0.6875 0.1875 (   770 PWs)   bands (ev):

    -3.6488   0.2788   2.8773   3.7462

          k = 0.6875-0.1875 1.0625 (   765 PWs)   bands (ev):

    -2.8532  -0.5145   2.3062   3.0687

          k = 0.5625-0.0625 0.9375 (   760 PWs)   bands (ev):

    -2.0538  -1.2634   1.9915   2.5723

          k = 0.4375 0.0625 0.8125 (   758 PWs)   bands (ev):

    -2.6507  -0.7193   1.9832   3.0433

          k =-0.1875-1.0625 0.1875 (   759 PWs)   bands (ev):

    -2.2153  -1.2422   2.0950   3.4069

          k =-0.3125-0.9375 0.0625 (   759 PWs)   bands (ev):

    -2.1159  -1.2726   2.1879   2.7850

          k =-0.1875-0.8125 0.1875 (   764 PWs)   bands (ev):

    -2.9496  -0.4767   2.3584   3.5212

          k =-0.3125 0.3125 0.3125 (   769 PWs)   bands (ev):

    -4.6545   1.0049   5.0117   5.0117

          k =-0.4375 0.4375 0.1875 (   771 PWs)   bands (ev):

    -4.1799   0.4310   3.5568   4.9247

          k = 0.4375-0.4375 1.0625 (   771 PWs)   bands (ev):

    -3.3958  -0.1009   2.0456   4.3491

          k = 0.3125-0.3125 0.9375 (   765 PWs)   bands (ev):

    -2.5832  -0.8770   1.7117   3.8073

          k =-0.3125 0.5625 0.3125 (   776 PWs)   bands (ev):

    -3.8691  -0.1217   3.8890   4.3664

          k = 0.5625-0.3125 1.1875 (   771 PWs)   bands (ev):

    -3.2557  -0.4804   2.5925   3.8956

          k = 0.4375-0.1875 1.0625 (   760 PWs)   bands (ev):

    -2.4463  -0.9426   1.8028   3.1891

          k =-0.3125-1.1875 0.3125 (   765 PWs)   bands (ev):

    -2.9010  -0.7582   2.2043   3.9063

          k =-0.4375 0.4375 0.4375 (   769 PWs)   bands (ev):

    -3.7752  -0.6239   4.7922   4.7922

          k = 0.4375-0.4375 1.3125 (   768 PWs)   bands (ev):

    -3.4283  -0.7986   3.5753   4.5266

     highest occupied level (ev):     5.8595

!    total energy              =     -93.45343844 Ry
     total all-electron energy =     -1160.145168 Ry
     estimated scf accuracy    <       0.00000039 Ry

     The total energy is the sum of the following terms:
     one-electron contribution =       5.53876845 Ry
     hartree contribution      =       1.12285108 Ry
     xc contribution           =     -12.27760717 Ry
     ewald contribution        =     -16.65483457 Ry
     one-center paw contrib.   =     -71.18261623 Ry

     convergence has been achieved in   5 iterations

     Writing all to output data dir ./silicon.save/
 
     init_run     :      0.10s CPU      0.12s WALL (       1 calls)
     electrons    :      0.77s CPU      0.83s WALL (       1 calls)

     Called by init_run:
     wfcinit      :      0.02s CPU      0.03s WALL (       1 calls)
     potinit      :      0.06s CPU      0.07s WALL (       1 calls)
     hinit0       :      0.01s CPU      0.02s WALL (       1 calls)

     Called by electrons:
     c_bands      :      0.41s CPU      0.43s WALL (       6 calls)
     sum_band     :      0.08s CPU      0.08s WALL (       6 calls)
     v_of_rho     :      0.01s CPU      0.01s WALL (       6 calls)
     newd         :      0.02s CPU      0.02s WALL (       6 calls)
     PAW_pot      :      0.32s CPU      0.37s WALL (       6 calls)
     mix_rho      :      0.00s CPU      0.00s WALL (       6 calls)

     Called by c_bands:
     init_us_2    :      0.01s CPU      0.02s WALL (     780 calls)
     init_us_2:cp :      0.01s CPU      0.02s WALL (     780 calls)
     cegterg      :      0.25s CPU      0.26s WALL (     360 calls)

     Called by *egterg:
     cdiaghg      :      0.02s CPU      0.03s WALL (    1211 calls)
     h_psi        :      0.19s CPU      0.21s WALL (    1331 calls)
     s_psi        :      0.01s CPU      0.01s WALL (    1331 calls)
     g_psi        :      0.00s CPU      0.00s WALL (     911 calls)

     Called by h_psi:
     h_psi:calbec :      0.02s CPU      0.02s WALL (    1331 calls)
     vloc_psi     :      0.16s CPU      0.17s WALL (    1331 calls)
     add_vuspsi   :      0.01s CPU      0.01s WALL (    1331 calls)

     General routines
     calbec       :      0.02s CPU      0.02s WALL (    1691 calls)
     fft          :      0.00s CPU      0.01s WALL (      67 calls)
     ffts         :      0.00s CPU      0.00s WALL (       6 calls)
     fftw         :      0.16s CPU      0.18s WALL (   10792 calls)
 
     Parallel routines
 
     PWSCF        :      0.95s CPU      1.06s WALL

 
   This run was terminated on:  17:46:30  13Mar2026            

=------------------------------------------------------------------------------=
   JOB DONE.
=------------------------------------------------------------------------------=
