
     Program PHONON v.7.1 starts on 13Mar2026 at 18:22: 9 

     This program is part of the open-source Quantum ESPRESSO suite
     for quantum simulation of materials; please cite
         "P. Giannozzi et al., J. Phys.:Condens. Matter 21 395502 (2009);
         "P. Giannozzi et al., J. Phys.:Condens. Matter 29 465901 (2017);
         "P. Giannozzi et al., J. Chem. Phys. 152 154105 (2020);
          URL http://www.quantum-espresso.org", 
     in publications or presentations arising from this work. More details at
     http://www.quantum-espresso.org/quote

     Parallel version (MPI), running on     8 processors

     MPI processes distributed on     1 nodes
     R & G space division:  proc/nbgrp/npool/nimage =       8
     12057 MiB available memory on the printing compute node when the environment starts
 
     Reading input from ph.in
      Title line not specified: using 'default'.
     Run is not recoverable starting from scratch

     Reading xml data from directory:

     ./silicon.save/
     file Si.pbe-n-kjpaw_psl.1.0.0.UPF: wavefunction(s)  3S 3P renormalized

     IMPORTANT: XC functional enforced from input :
     Exchange-correlation= PBE
                           (   1   4   3   4   0   0   0)
     Any further DFT definition will be discarded
     Please, verify this is what you really want

 
     Parallelization info
     --------------------
     sticks:   dense  smooth     PW     G-vecs:    dense   smooth      PW
     Min          54      54     18                  771      771     153
     Max          55      55     19                  775      775     156
     Sum         439     439    151                 6183     6183    1243
 
     Using Slab Decomposition
 

     Check: negative core charge=   -0.000003
     Reading collected, re-writing distributed wavefunctions


     Dynamical matrices for ( 2, 2, 2)  uniform grid of q-points
     (   3 q-points):
       N         xq(1)         xq(2)         xq(3) 
       1   0.000000000   0.000000000   0.000000000
       2   0.500000000  -0.500000000   0.500000000
       3   0.000000000  -1.000000000   0.000000000

     Calculation of q =    0.0000000   0.0000000   0.0000000

     default                                                                    

     bravais-lattice index     =            2
     lattice parameter (alat)  =      10.3500  a.u.
     unit-cell volume          =     277.1795 (a.u.)^3
     number of atoms/cell      =            2
     number of atomic types    =            1
     kinetic-energy cut-off    =      30.0000  Ry
     charge density cut-off    =     120.0000  Ry
     convergence threshold     =      1.0E-12
     beta                      =       0.7000
     number of iterations used =            4
     Exchange-correlation= PBE
                           (   1   4   3   4   0   0   0)


     celldm(1)=   10.35000  celldm(2)=    0.00000  celldm(3)=    0.00000
     celldm(4)=    0.00000  celldm(5)=    0.00000  celldm(6)=    0.00000

     crystal axes: (cart. coord. in units of alat)
               a(1) = ( -0.5000  0.0000  0.5000 )  
               a(2) = (  0.0000  0.5000  0.5000 )  
               a(3) = ( -0.5000  0.5000  0.0000 )  

     reciprocal axes: (cart. coord. in units 2 pi/alat)
               b(1) = ( -1.0000 -1.0000  1.0000 )  
               b(2) = (  1.0000  1.0000  1.0000 )  
               b(3) = ( -1.0000  1.0000 -1.0000 )  


     Atoms inside the unit cell: 

     Cartesian axes

     site n.  atom      mass           positions (alat units)
        1     Si  28.0855   tau(    1) = (    0.00000    0.00000    0.00000  )
        2     Si  28.0855   tau(    2) = (    0.25000    0.25000    0.25000  )

     Computing dynamical matrix for 
                    q = (   0.0000000   0.0000000   0.0000000 )
 
     49 Sym.Ops. (with q -> -q+G )


     G cutoff =  325.6134  (    773 G-vectors)     FFT grid: ( 32, 32, 32)
     number of k points=    28

     PseudoPot. # 1 for Si read from file:
     /home/karan/pseudos/Si.pbe-n-kjpaw_psl.1.0.0.UPF
     MD5 check sum: c39c59da582df4a0d9f10159256ea34e
     Pseudo is Projector augmented-wave + core cor, Zval =  4.0
     Generated using &quot;atomic&quot; code by A. Dal Corso  v.6.3
     Shape of augmentation charge: PSQ
     Using radial grid of 1141 points,  6 beta functions with: 
                l(1) =   0
                l(2) =   0
                l(3) =   1
                l(4) =   1
                l(5) =   2
                l(6) =   2
     Q(r) pseudized with 0 coefficients 


     Mode symmetry, O_h (m-3m)  point group:


     Electric field:
     Dielectric constant
     Born effective charges in two ways 


     Atomic displacements:
     There are    2 irreducible representations

     Representation     1      3 modes -  To be done

     Representation     2      3 modes -  To be done



     Alpha used in Ewald sum =   1.3000
     PHONON       :      0.28s CPU      0.33s WALL


     Electric Fields Calculation

      iter #   1 total cpu time :     1.4 secs   av.it.:   6.3
      thresh= 1.000E-02 alpha_mix =  0.700 |ddv_scf|^2 =  2.023E-07

      iter #   2 total cpu time :     2.1 secs   av.it.:  10.9
      thresh= 4.498E-05 alpha_mix =  0.700 |ddv_scf|^2 =  1.140E-08

      iter #   3 total cpu time :     2.9 secs   av.it.:  10.7
      thresh= 1.068E-05 alpha_mix =  0.700 |ddv_scf|^2 =  7.203E-10

      iter #   4 total cpu time :     3.6 secs   av.it.:  10.5
      thresh= 2.684E-06 alpha_mix =  0.700 |ddv_scf|^2 =  1.221E-11

      iter #   5 total cpu time :     4.4 secs   av.it.:  10.1
      thresh= 3.494E-07 alpha_mix =  0.700 |ddv_scf|^2 =  3.062E-14

     End of electric fields calculation

          Dielectric constant in cartesian axis 

          (      13.109408644       0.000000000      -0.000000000 )
          (       0.000000000      13.109408644       0.000000000 )
          (      -0.000000000       0.000000000      13.109408644 )

          Effective charges (d Force / dE) in cartesian axis without acoustic sum rule applied (asr)

           atom      1   Si Mean Z*:       -0.00647
      Ex  (       -0.00647        0.00000       -0.00000 )
      Ey  (        0.00000       -0.00647        0.00000 )
      Ez  (       -0.00000        0.00000       -0.00647 )
           atom      2   Si Mean Z*:       -0.00647
      Ex  (       -0.00647        0.00000        0.00000 )
      Ey  (        0.00000       -0.00647       -0.00000 )
      Ez  (        0.00000       -0.00000       -0.00647 )

          Effective charges Sum: Mean:       -0.01293
             -0.01293        0.00000        0.00000
              0.00000       -0.01293        0.00000
              0.00000       -0.00000       -0.01293

          Effective charges (d Force / dE) in cartesian axis with asr applied: 
           atom      1   Si Mean Z*:       -0.00000
      E*x (       -0.00000        0.00000       -0.00000 )
      E*y (        0.00000       -0.00000        0.00000 )
      E*z (       -0.00000        0.00000       -0.00000 )
           atom      2   Si Mean Z*:        0.00000
      E*x (        0.00000       -0.00000        0.00000 )
      E*y (        0.00000        0.00000       -0.00000 )
      E*z (        0.00000       -0.00000        0.00000 )


     Representation #   1 modes #   1   2   3

     Self-consistent Calculation

      iter #   1 total cpu time :     5.6 secs   av.it.:   5.4
      thresh= 1.000E-02 alpha_mix =  0.700 |ddv_scf|^2 =  5.076E-08

      iter #   2 total cpu time :     6.4 secs   av.it.:  10.6
      thresh= 2.253E-05 alpha_mix =  0.700 |ddv_scf|^2 =  3.284E-09

      iter #   3 total cpu time :     7.4 secs   av.it.:  10.2
      thresh= 5.731E-06 alpha_mix =  0.700 |ddv_scf|^2 =  4.515E-10

      iter #   4 total cpu time :     8.4 secs   av.it.:   9.6
      thresh= 2.125E-06 alpha_mix =  0.700 |ddv_scf|^2 =  3.197E-11

      iter #   5 total cpu time :     9.2 secs   av.it.:   9.3
      thresh= 5.654E-07 alpha_mix =  0.700 |ddv_scf|^2 =  5.128E-15

     End of self-consistent calculation

     Convergence has been achieved 


     Representation #   2 modes #   4   5   6

     Self-consistent Calculation

      iter #   1 total cpu time :    10.1 secs   av.it.:   5.5
      thresh= 1.000E-02 alpha_mix =  0.700 |ddv_scf|^2 =  4.458E-08

      iter #   2 total cpu time :    11.0 secs   av.it.:  10.7
      thresh= 2.111E-05 alpha_mix =  0.700 |ddv_scf|^2 =  3.631E-09

      iter #   3 total cpu time :    11.9 secs   av.it.:  10.3
      thresh= 6.026E-06 alpha_mix =  0.700 |ddv_scf|^2 =  4.966E-10

      iter #   4 total cpu time :    12.7 secs   av.it.:  10.2
      thresh= 2.228E-06 alpha_mix =  0.700 |ddv_scf|^2 =  4.055E-11

      iter #   5 total cpu time :    13.6 secs   av.it.:   9.6
      thresh= 6.368E-07 alpha_mix =  0.700 |ddv_scf|^2 =  5.077E-15

     End of self-consistent calculation

     Convergence has been achieved 
 
     Number of q in the star =    1
     List of q in the star:
          1   0.000000000   0.000000000   0.000000000

          Dielectric constant in cartesian axis 

          (      13.109408644       0.000000000      -0.000000000 )
          (       0.000000000      13.109408644       0.000000000 )
          (      -0.000000000       0.000000000      13.109408644 )

          Effective charges (d Force / dE) in cartesian axis without acoustic sum rule applied (asr)

           atom      1   Si Mean Z*:       -0.00647
      Ex  (       -0.00647        0.00000       -0.00000 )
      Ey  (        0.00000       -0.00647        0.00000 )
      Ez  (       -0.00000        0.00000       -0.00647 )
           atom      2   Si Mean Z*:       -0.00647
      Ex  (       -0.00647        0.00000        0.00000 )
      Ey  (        0.00000       -0.00647       -0.00000 )
      Ez  (        0.00000       -0.00000       -0.00647 )

          Effective charges Sum: Mean:       -0.01293
             -0.01293        0.00000        0.00000
              0.00000       -0.01293        0.00000
              0.00000       -0.00000       -0.01293

          Effective charges (d Force / dE) in cartesian axis with asr applied: 
           atom      1   Si Mean Z*:       -0.00000
      E*x (       -0.00000        0.00000       -0.00000 )
      E*y (        0.00000       -0.00000        0.00000 )
      E*z (       -0.00000        0.00000       -0.00000 )
           atom      2   Si Mean Z*:        0.00000
      E*x (        0.00000       -0.00000        0.00000 )
      E*y (        0.00000        0.00000       -0.00000 )
      E*z (        0.00000       -0.00000        0.00000 )

          Effective charges (d P / du) in cartesian axis 

           atom      1   Si 
      Px  (       -0.00679        0.00000        0.00000 )
      Py  (        0.00000       -0.00679        0.00000 )
      Pz  (        0.00000       -0.00000       -0.00679 )
           atom      2   Si 
      Px  (       -0.00679        0.00000       -0.00000 )
      Py  (       -0.00000       -0.00679        0.00000 )
      Pz  (        0.00000        0.00000       -0.00679 )

     Diagonalizing the dynamical matrix

     q = (    0.000000000   0.000000000   0.000000000 ) 

 **************************************************************************
     freq (    1) =       0.662248 [THz] =      22.090230 [cm-1]
     freq (    2) =       0.662248 [THz] =      22.090230 [cm-1]
     freq (    3) =       0.662248 [THz] =      22.090230 [cm-1]
     freq (    4) =      15.043776 [THz] =     501.806359 [cm-1]
     freq (    5) =      15.043776 [THz] =     501.806359 [cm-1]
     freq (    6) =      15.043776 [THz] =     501.806359 [cm-1]
 **************************************************************************

     Mode symmetry, O_h (m-3m)  point group:

     freq (   1-   3) =         22.1  [cm-1]   --> T_1u G_15  G_4- I  
     freq (   4-   6) =        501.8  [cm-1]   --> T_2g G_25' G_5+ R  

     Calculation of q =    0.5000000  -0.5000000   0.5000000
     Subspace diagonalization in iterative solution of the eigenvalue problem:
     one sub-group per band group will be used
     scalapack distributed-memory algorithm (size of sub-group:  2*  2 procs)

 
     Parallelization info
     --------------------
     sticks:   dense  smooth     PW     G-vecs:    dense   smooth      PW
     Min          54      54     20                  771      771     181
     Max          55      55     21                  775      775     185
     Sum         439     439    163                 6183     6183    1459
 
     Using Slab Decomposition
 

     Title: 
     default                                                                    


     bravais-lattice index     =            2
     lattice parameter (alat)  =      10.3500  a.u.
     unit-cell volume          =     277.1795 (a.u.)^3
     number of atoms/cell      =            2
     number of atomic types    =            1
     number of electrons       =         8.00
     number of Kohn-Sham states=            4
     kinetic-energy cutoff     =      30.0000  Ry
     charge density cutoff     =     120.0000  Ry
     Exchange-correlation= PBE
                           (   1   4   3   4   0   0   0)

     celldm(1)=  10.350000  celldm(2)=   0.000000  celldm(3)=   0.000000
     celldm(4)=   0.000000  celldm(5)=   0.000000  celldm(6)=   0.000000

     crystal axes: (cart. coord. in units of alat)
               a(1) = (  -0.500000   0.000000   0.500000 )  
               a(2) = (   0.000000   0.500000   0.500000 )  
               a(3) = (  -0.500000   0.500000   0.000000 )  

     reciprocal axes: (cart. coord. in units 2 pi/alat)
               b(1) = ( -1.000000 -1.000000  1.000000 )  
               b(2) = (  1.000000  1.000000  1.000000 )  
               b(3) = ( -1.000000  1.000000 -1.000000 )  


     PseudoPot. # 1 for Si read from file:
     /home/karan/pseudos/Si.pbe-n-kjpaw_psl.1.0.0.UPF
     MD5 check sum: c39c59da582df4a0d9f10159256ea34e
     Pseudo is Projector augmented-wave + core cor, Zval =  4.0
     Generated using &quot;atomic&quot; code by A. Dal Corso  v.6.3
     Shape of augmentation charge: PSQ
     Using radial grid of 1141 points,  6 beta functions with: 
                l(1) =   0
                l(2) =   0
                l(3) =   1
                l(4) =   1
                l(5) =   2
                l(6) =   2
     Q(r) pseudized with 0 coefficients 


     atomic species   valence    mass     pseudopotential
        Si             4.00    28.08550     Si( 1.00)

     48 Sym. Ops., with inversion, found



   Cartesian axes

     site n.     atom                  positions (alat units)
         1           Si  tau(   1) = (   0.0000000   0.0000000   0.0000000  )
         2           Si  tau(   2) = (   0.2500000   0.2500000   0.2500000  )

     number of k points=   182

     Number of k-points >= 100: set verbosity='high' to print them.

     Dense  grid:     6183 G-vectors     FFT dimensions: (  32,  32,  32)

     Estimated max dynamical RAM per process >       3.66 MB

     Estimated total dynamical RAM >      29.30 MB

     Check: negative core charge=   -0.000003

     The potential is recalculated from file :
     ./_ph0/silicon.save/charge-density

     Starting wfcs are    8 atomic wfcs
     Checking if some PAW data can be deallocated... 

     Band Structure Calculation
     Davidson diagonalization with overlap

     ethr =  1.25E-10,  avg # of iterations = 13.3

     total cpu time spent up to now is        1.9 secs

     End of band structure calculation

     Number of k-points >= 100: set verbosity='high' to print the bands.

     highest occupied level (ev):     5.7996

     Writing config to output data dir ./_ph0/silicon.save/

     default                                                                    

     bravais-lattice index     =            2
     lattice parameter (alat)  =      10.3500  a.u.
     unit-cell volume          =     277.1795 (a.u.)^3
     number of atoms/cell      =            2
     number of atomic types    =            1
     kinetic-energy cut-off    =      30.0000  Ry
     charge density cut-off    =     120.0000  Ry
     convergence threshold     =      1.0E-12
     beta                      =       0.7000
     number of iterations used =            4
     Exchange-correlation= PBE
                           (   1   4   3   4   0   0   0)


     celldm(1)=   10.35000  celldm(2)=    0.00000  celldm(3)=    0.00000
     celldm(4)=    0.00000  celldm(5)=    0.00000  celldm(6)=    0.00000

     crystal axes: (cart. coord. in units of alat)
               a(1) = ( -0.5000  0.0000  0.5000 )  
               a(2) = (  0.0000  0.5000  0.5000 )  
               a(3) = ( -0.5000  0.5000  0.0000 )  

     reciprocal axes: (cart. coord. in units 2 pi/alat)
               b(1) = ( -1.0000 -1.0000  1.0000 )  
               b(2) = (  1.0000  1.0000  1.0000 )  
               b(3) = ( -1.0000  1.0000 -1.0000 )  


     Atoms inside the unit cell: 

     Cartesian axes

     site n.  atom      mass           positions (alat units)
        1     Si  28.0855   tau(    1) = (    0.00000    0.00000    0.00000  )
        2     Si  28.0855   tau(    2) = (    0.25000    0.25000    0.25000  )

     Computing dynamical matrix for 
                    q = (   0.5000000  -0.5000000   0.5000000 )
 
     13 Sym.Ops. (with q -> -q+G )


     G cutoff =  325.6134  (    773 G-vectors)     FFT grid: ( 32, 32, 32)
     number of k points=   182

     PseudoPot. # 1 for Si read from file:
     /home/karan/pseudos/Si.pbe-n-kjpaw_psl.1.0.0.UPF
     MD5 check sum: c39c59da582df4a0d9f10159256ea34e
     Pseudo is Projector augmented-wave + core cor, Zval =  4.0
     Generated using &quot;atomic&quot; code by A. Dal Corso  v.6.3
     Shape of augmentation charge: PSQ
     Using radial grid of 1141 points,  6 beta functions with: 
                l(1) =   0
                l(2) =   0
                l(3) =   1
                l(4) =   1
                l(5) =   2
                l(6) =   2
     Q(r) pseudized with 0 coefficients 



     Atomic displacements:
     There are    4 irreducible representations

     Representation     1      1 modes -  To be done

     Representation     2      1 modes -  To be done

     Representation     3      2 modes -  To be done

     Representation     4      2 modes -  To be done



     Alpha used in Ewald sum =   1.3000
     PHONON       :     15.16s CPU     15.88s WALL



     Representation #   1 mode #   1

     Self-consistent Calculation

      iter #   1 total cpu time :    16.3 secs   av.it.:   5.2
      thresh= 1.000E-02 alpha_mix =  0.700 |ddv_scf|^2 =  5.995E-06

      iter #   2 total cpu time :    16.8 secs   av.it.:   9.2
      thresh= 2.449E-04 alpha_mix =  0.700 |ddv_scf|^2 =  5.456E-06

      iter #   3 total cpu time :    17.2 secs   av.it.:   8.6
      thresh= 2.336E-04 alpha_mix =  0.700 |ddv_scf|^2 =  1.218E-08

      iter #   4 total cpu time :    17.7 secs   av.it.:   8.5
      thresh= 1.104E-05 alpha_mix =  0.700 |ddv_scf|^2 =  1.084E-09

      iter #   5 total cpu time :    18.1 secs   av.it.:   7.4
      thresh= 3.292E-06 alpha_mix =  0.700 |ddv_scf|^2 =  1.182E-12

      iter #   6 total cpu time :    18.6 secs   av.it.:   9.0
      thresh= 1.087E-07 alpha_mix =  0.700 |ddv_scf|^2 =  2.541E-14

     End of self-consistent calculation

     Convergence has been achieved 


     Representation #   2 mode #   2

     Self-consistent Calculation

      iter #   1 total cpu time :    19.0 secs   av.it.:   6.2
      thresh= 1.000E-02 alpha_mix =  0.700 |ddv_scf|^2 =  8.203E-05

      iter #   2 total cpu time :    19.5 secs   av.it.:   9.3
      thresh= 9.057E-04 alpha_mix =  0.700 |ddv_scf|^2 =  2.566E-04

      iter #   3 total cpu time :    20.0 secs   av.it.:   8.4
      thresh= 1.602E-03 alpha_mix =  0.700 |ddv_scf|^2 =  3.570E-08

      iter #   4 total cpu time :    20.4 secs   av.it.:   9.2
      thresh= 1.889E-05 alpha_mix =  0.700 |ddv_scf|^2 =  3.756E-09

      iter #   5 total cpu time :    20.9 secs   av.it.:   9.2
      thresh= 6.128E-06 alpha_mix =  0.700 |ddv_scf|^2 =  4.074E-10

      iter #   6 total cpu time :    21.4 secs   av.it.:   8.9
      thresh= 2.018E-06 alpha_mix =  0.700 |ddv_scf|^2 =  2.681E-12

      iter #   7 total cpu time :    21.8 secs   av.it.:   8.9
      thresh= 1.637E-07 alpha_mix =  0.700 |ddv_scf|^2 =  6.643E-15

     End of self-consistent calculation

     Convergence has been achieved 


     Representation #   3 modes #   3   4

     Self-consistent Calculation

      iter #   1 total cpu time :    22.6 secs   av.it.:   5.5
      thresh= 1.000E-02 alpha_mix =  0.700 |ddv_scf|^2 =  2.255E-07

      iter #   2 total cpu time :    23.6 secs   av.it.:  10.4
      thresh= 4.749E-05 alpha_mix =  0.700 |ddv_scf|^2 =  1.939E-08

      iter #   3 total cpu time :    24.6 secs   av.it.:  10.2
      thresh= 1.392E-05 alpha_mix =  0.700 |ddv_scf|^2 =  1.638E-09

      iter #   4 total cpu time :    25.5 secs   av.it.:   9.4
      thresh= 4.047E-06 alpha_mix =  0.700 |ddv_scf|^2 =  1.551E-10

      iter #   5 total cpu time :    26.4 secs   av.it.:   8.9
      thresh= 1.245E-06 alpha_mix =  0.700 |ddv_scf|^2 =  9.909E-15

     End of self-consistent calculation

     Convergence has been achieved 


     Representation #   4 modes #   5   6

     Self-consistent Calculation

      iter #   1 total cpu time :    27.2 secs   av.it.:   5.2
      thresh= 1.000E-02 alpha_mix =  0.700 |ddv_scf|^2 =  8.262E-08

      iter #   2 total cpu time :    28.2 secs   av.it.:  10.0
      thresh= 2.874E-05 alpha_mix =  0.700 |ddv_scf|^2 =  6.937E-09

      iter #   3 total cpu time :    29.2 secs   av.it.:   9.6
      thresh= 8.329E-06 alpha_mix =  0.700 |ddv_scf|^2 =  8.277E-10

      iter #   4 total cpu time :    30.2 secs   av.it.:   9.0
      thresh= 2.877E-06 alpha_mix =  0.700 |ddv_scf|^2 =  2.196E-11

      iter #   5 total cpu time :    31.1 secs   av.it.:   9.4
      thresh= 4.686E-07 alpha_mix =  0.700 |ddv_scf|^2 =  1.647E-14

     End of self-consistent calculation

     Convergence has been achieved 
 
     Number of q in the star =    4
     List of q in the star:
          1   0.500000000  -0.500000000   0.500000000
          2   0.500000000   0.500000000  -0.500000000
          3  -0.500000000  -0.500000000  -0.500000000
          4   0.500000000  -0.500000000  -0.500000000

     Diagonalizing the dynamical matrix

     q = (    0.500000000  -0.500000000   0.500000000 ) 

 **************************************************************************
     freq (    1) =       3.405235 [THz] =     113.586422 [cm-1]
     freq (    2) =       3.405235 [THz] =     113.586422 [cm-1]
     freq (    3) =      11.094253 [THz] =     370.064450 [cm-1]
     freq (    4) =      11.898789 [THz] =     396.900880 [cm-1]
     freq (    5) =      14.245869 [THz] =     475.191045 [cm-1]
     freq (    6) =      14.245869 [THz] =     475.191045 [cm-1]
 **************************************************************************

     Calculation of q =    0.0000000  -1.0000000   0.0000000
 
     Parallelization info
     --------------------
     sticks:   dense  smooth     PW     G-vecs:    dense   smooth      PW
     Min          54      54     20                  771      771     181
     Max          55      55     21                  775      775     185
     Sum         439     439    163                 6183     6183    1459
 
     Using Slab Decomposition
 

     Title: 
     default                                                                    


     bravais-lattice index     =            2
     lattice parameter (alat)  =      10.3500  a.u.
     unit-cell volume          =     277.1795 (a.u.)^3
     number of atoms/cell      =            2
     number of atomic types    =            1
     number of electrons       =         8.00
     number of Kohn-Sham states=            4
     kinetic-energy cutoff     =      30.0000  Ry
     charge density cutoff     =     120.0000  Ry
     Exchange-correlation= PBE
                           (   1   4   3   4   0   0   0)

     celldm(1)=  10.350000  celldm(2)=   0.000000  celldm(3)=   0.000000
     celldm(4)=   0.000000  celldm(5)=   0.000000  celldm(6)=   0.000000

     crystal axes: (cart. coord. in units of alat)
               a(1) = (  -0.500000   0.000000   0.500000 )  
               a(2) = (   0.000000   0.500000   0.500000 )  
               a(3) = (  -0.500000   0.500000   0.000000 )  

     reciprocal axes: (cart. coord. in units 2 pi/alat)
               b(1) = ( -1.000000 -1.000000  1.000000 )  
               b(2) = (  1.000000  1.000000  1.000000 )  
               b(3) = ( -1.000000  1.000000 -1.000000 )  


     PseudoPot. # 1 for Si read from file:
     /home/karan/pseudos/Si.pbe-n-kjpaw_psl.1.0.0.UPF
     MD5 check sum: c39c59da582df4a0d9f10159256ea34e
     Pseudo is Projector augmented-wave + core cor, Zval =  4.0
     Generated using &quot;atomic&quot; code by A. Dal Corso  v.6.3
     Shape of augmentation charge: PSQ
     Using radial grid of 1141 points,  6 beta functions with: 
                l(1) =   0
                l(2) =   0
                l(3) =   1
                l(4) =   1
                l(5) =   2
                l(6) =   2
     Q(r) pseudized with 0 coefficients 


     atomic species   valence    mass     pseudopotential
        Si             4.00    28.08550     Si( 1.00)

     48 Sym. Ops., with inversion, found



   Cartesian axes

     site n.     atom                  positions (alat units)
         1           Si  tau(   1) = (   0.0000000   0.0000000   0.0000000  )
         2           Si  tau(   2) = (   0.2500000   0.2500000   0.2500000  )

     number of k points=   126

     Number of k-points >= 100: set verbosity='high' to print them.

     Dense  grid:     6183 G-vectors     FFT dimensions: (  32,  32,  32)

     Estimated max dynamical RAM per process >       3.67 MB

     Estimated total dynamical RAM >      29.36 MB

     Check: negative core charge=   -0.000003

     The potential is recalculated from file :
     ./_ph0/silicon.save/charge-density

     Starting wfcs are    8 atomic wfcs
     Checking if some PAW data can be deallocated... 

     Band Structure Calculation
     Davidson diagonalization with overlap

     ethr =  1.25E-10,  avg # of iterations = 13.3

     total cpu time spent up to now is        3.3 secs

     End of band structure calculation

     Number of k-points >= 100: set verbosity='high' to print the bands.

     highest occupied level (ev):     5.7996

     Writing config to output data dir ./_ph0/silicon.save/

     default                                                                    

     bravais-lattice index     =            2
     lattice parameter (alat)  =      10.3500  a.u.
     unit-cell volume          =     277.1795 (a.u.)^3
     number of atoms/cell      =            2
     number of atomic types    =            1
     kinetic-energy cut-off    =      30.0000  Ry
     charge density cut-off    =     120.0000  Ry
     convergence threshold     =      1.0E-12
     beta                      =       0.7000
     number of iterations used =            4
     Exchange-correlation= PBE
                           (   1   4   3   4   0   0   0)


     celldm(1)=   10.35000  celldm(2)=    0.00000  celldm(3)=    0.00000
     celldm(4)=    0.00000  celldm(5)=    0.00000  celldm(6)=    0.00000

     crystal axes: (cart. coord. in units of alat)
               a(1) = ( -0.5000  0.0000  0.5000 )  
               a(2) = (  0.0000  0.5000  0.5000 )  
               a(3) = ( -0.5000  0.5000  0.0000 )  

     reciprocal axes: (cart. coord. in units 2 pi/alat)
               b(1) = ( -1.0000 -1.0000  1.0000 )  
               b(2) = (  1.0000  1.0000  1.0000 )  
               b(3) = ( -1.0000  1.0000 -1.0000 )  


     Atoms inside the unit cell: 

     Cartesian axes

     site n.  atom      mass           positions (alat units)
        1     Si  28.0855   tau(    1) = (    0.00000    0.00000    0.00000  )
        2     Si  28.0855   tau(    2) = (    0.25000    0.25000    0.25000  )

     Computing dynamical matrix for 
                    q = (   0.0000000  -1.0000000   0.0000000 )
 
     17 Sym.Ops. (with q -> -q+G )


     G cutoff =  325.6134  (    773 G-vectors)     FFT grid: ( 32, 32, 32)
     number of k points=   126

     PseudoPot. # 1 for Si read from file:
     /home/karan/pseudos/Si.pbe-n-kjpaw_psl.1.0.0.UPF
     MD5 check sum: c39c59da582df4a0d9f10159256ea34e
     Pseudo is Projector augmented-wave + core cor, Zval =  4.0
     Generated using &quot;atomic&quot; code by A. Dal Corso  v.6.3
     Shape of augmentation charge: PSQ
     Using radial grid of 1141 points,  6 beta functions with: 
                l(1) =   0
                l(2) =   0
                l(3) =   1
                l(4) =   1
                l(5) =   2
                l(6) =   2
     Q(r) pseudized with 0 coefficients 



     Atomic displacements:
     There are    3 irreducible representations

     Representation     1      2 modes -  To be done

     Representation     2      2 modes -  To be done

     Representation     3      2 modes -  To be done



     Alpha used in Ewald sum =   1.3000
     PHONON       :     30.94s CPU     32.68s WALL



     Representation #   1 modes #   1   2

     Self-consistent Calculation

      iter #   1 total cpu time :    33.4 secs   av.it.:   5.8
      thresh= 1.000E-02 alpha_mix =  0.700 |ddv_scf|^2 =  7.220E-07

      iter #   2 total cpu time :    34.3 secs   av.it.:  10.4
      thresh= 8.497E-05 alpha_mix =  0.700 |ddv_scf|^2 =  1.718E-07

      iter #   3 total cpu time :    35.0 secs   av.it.:  10.0
      thresh= 4.145E-05 alpha_mix =  0.700 |ddv_scf|^2 =  2.424E-09

      iter #   4 total cpu time :    35.8 secs   av.it.:   9.4
      thresh= 4.923E-06 alpha_mix =  0.700 |ddv_scf|^2 =  2.350E-10

      iter #   5 total cpu time :    36.6 secs   av.it.:   8.8
      thresh= 1.533E-06 alpha_mix =  0.700 |ddv_scf|^2 =  1.412E-14

     End of self-consistent calculation

     Convergence has been achieved 


     Representation #   2 modes #   3   4

     Self-consistent Calculation

      iter #   1 total cpu time :    37.3 secs   av.it.:   6.1
      thresh= 1.000E-02 alpha_mix =  0.700 |ddv_scf|^2 =  4.027E-06

      iter #   2 total cpu time :    38.2 secs   av.it.:  10.4
      thresh= 2.007E-04 alpha_mix =  0.700 |ddv_scf|^2 =  5.621E-06

      iter #   3 total cpu time :    39.1 secs   av.it.:   9.6
      thresh= 2.371E-04 alpha_mix =  0.700 |ddv_scf|^2 =  4.617E-09

      iter #   4 total cpu time :    39.9 secs   av.it.:  10.0
      thresh= 6.795E-06 alpha_mix =  0.700 |ddv_scf|^2 =  5.862E-10

      iter #   5 total cpu time :    40.7 secs   av.it.:  10.1
      thresh= 2.421E-06 alpha_mix =  0.700 |ddv_scf|^2 =  4.713E-11

      iter #   6 total cpu time :    41.5 secs   av.it.:   9.8
      thresh= 6.865E-07 alpha_mix =  0.700 |ddv_scf|^2 =  4.332E-14

     End of self-consistent calculation

     Convergence has been achieved 


     Representation #   3 modes #   5   6

     Self-consistent Calculation

      iter #   1 total cpu time :    42.3 secs   av.it.:   5.0
      thresh= 1.000E-02 alpha_mix =  0.700 |ddv_scf|^2 =  7.258E-08

      iter #   2 total cpu time :    43.1 secs   av.it.:   9.8
      thresh= 2.694E-05 alpha_mix =  0.700 |ddv_scf|^2 =  6.393E-09

      iter #   3 total cpu time :    43.9 secs   av.it.:   9.6
      thresh= 7.996E-06 alpha_mix =  0.700 |ddv_scf|^2 =  6.873E-10

      iter #   4 total cpu time :    44.6 secs   av.it.:   8.6
      thresh= 2.622E-06 alpha_mix =  0.700 |ddv_scf|^2 =  4.253E-13

     End of self-consistent calculation

     Convergence has been achieved 
 
     Number of q in the star =    3
     List of q in the star:
          1   0.000000000  -1.000000000   0.000000000
          2  -1.000000000   0.000000000   0.000000000
          3   0.000000000   0.000000000   1.000000000

     Diagonalizing the dynamical matrix

     q = (    0.000000000  -1.000000000   0.000000000 ) 

 **************************************************************************
     freq (    1) =       4.491659 [THz] =     149.825619 [cm-1]
     freq (    2) =       4.491659 [THz] =     149.825619 [cm-1]
     freq (    3) =      11.975874 [THz] =     399.472145 [cm-1]
     freq (    4) =      11.975874 [THz] =     399.472145 [cm-1]
     freq (    5) =      13.312749 [THz] =     444.065508 [cm-1]
     freq (    6) =      13.312749 [THz] =     444.065508 [cm-1]
 **************************************************************************
 
     init_run     :      0.15s CPU      0.18s WALL (       2 calls)
     electrons    :      2.82s CPU      3.09s WALL (       2 calls)

     Called by init_run:
     wfcinit      :      0.00s CPU      0.00s WALL (       2 calls)
     potinit      :      0.10s CPU      0.12s WALL (       2 calls)
     hinit0       :      0.03s CPU      0.04s WALL (       2 calls)

     Called by electrons:
     c_bands      :      2.82s CPU      3.09s WALL (       2 calls)
     v_of_rho     :      0.01s CPU      0.01s WALL (       3 calls)
     newd         :      0.01s CPU      0.01s WALL (       3 calls)
     PAW_pot      :      0.16s CPU      0.19s WALL (       3 calls)

     Called by c_bands:
     init_us_2    :      0.13s CPU      0.14s WALL (    5964 calls)
     init_us_2:cp :      0.12s CPU      0.13s WALL (    5964 calls)
     cegterg      :      2.45s CPU      2.68s WALL (     308 calls)

     Called by *egterg:
     cdiaghg      :      1.17s CPU      1.29s WALL (    4408 calls)
     h_psi        :     11.88s CPU     13.04s WALL (   71849 calls)
     s_psi        :      0.86s CPU      0.96s WALL (  145303 calls)
     g_psi        :      0.01s CPU      0.01s WALL (    4100 calls)

     Called by h_psi:
     h_psi:calbec :      0.95s CPU      1.05s WALL (   71849 calls)
     vloc_psi     :     10.15s CPU     11.14s WALL (   71849 calls)
     add_vuspsi   :      0.48s CPU      0.53s WALL (   71849 calls)

     General routines
     calbec       :      1.85s CPU      2.04s WALL (  167584 calls)
     fft          :      0.07s CPU      0.08s WALL (    2058 calls)
     ffts         :      0.05s CPU      0.06s WALL (    1332 calls)
     fftw         :     10.77s CPU     11.83s WALL (  607114 calls)
     davcio       :      0.23s CPU      0.26s WALL (   32529 calls)
 
     Parallel routines
 
     PHONON       :     42.25s CPU     44.65s WALL

     INITIALIZATION: 
     phq_setup    :      0.01s CPU      0.01s WALL (       3 calls)
     phq_init     :      0.47s CPU      0.50s WALL (       3 calls)
 
     phq_init     :      0.47s CPU      0.50s WALL (       3 calls)
     set_drhoc    :      0.03s CPU      0.03s WALL (       9 calls)
     init_vloc    :      0.00s CPU      0.00s WALL (       3 calls)
     init_us_1    :      0.04s CPU      0.05s WALL (       3 calls)
     init_us_2    :      0.13s CPU      0.14s WALL (    5964 calls)
     newd         :      0.01s CPU      0.01s WALL (       3 calls)
     dvanqq       :      0.05s CPU      0.06s WALL (       3 calls)
     drho         :      0.29s CPU      0.32s WALL (       3 calls)
 
     DYNAMICAL MATRIX:
     dynmat0      :      0.09s CPU      0.09s WALL (       3 calls)
     phqscf       :     34.31s CPU     36.14s WALL (       3 calls)
     dynmatrix    :      0.00s CPU      0.00s WALL (       3 calls)
 
     phqscf       :     34.31s CPU     36.14s WALL (       3 calls)
     solve_linter :     33.98s CPU     35.80s WALL (       9 calls)
     drhodv       :      0.09s CPU      0.10s WALL (       9 calls)
 
     dynmat0      :      0.09s CPU      0.09s WALL (       3 calls)
     dynmat_us    :      0.06s CPU      0.06s WALL (       3 calls)
     d2ionq       :      0.00s CPU      0.00s WALL (       3 calls)
     dynmatcc     :      0.03s CPU      0.03s WALL (       3 calls)
 
     dynmat_us    :      0.06s CPU      0.06s WALL (       3 calls)
     addusdynmat  :      0.00s CPU      0.00s WALL (       3 calls)
 
     phqscf       :     34.31s CPU     36.14s WALL (       3 calls)
     solve_linter :     33.98s CPU     35.80s WALL (       9 calls)
 
     solve_linter :     33.98s CPU     35.80s WALL (       9 calls)
     dvqpsi_us    :      0.50s CPU      0.55s WALL (    1260 calls)
     sth_kernel   :     17.26s CPU     18.95s WALL (      53 calls)
     apply_dpot_b :      0.96s CPU      1.05s WALL (    4977 calls)
     ortho        :      0.20s CPU      0.23s WALL (    6237 calls)
     cgsolve      :     14.72s CPU     16.16s WALL (    6237 calls)
     incdrhoscf   :      1.36s CPU      1.51s WALL (    6237 calls)
     addusddens   :      0.17s CPU      0.18s WALL (      57 calls)
     dv_of_drho   :      0.09s CPU      0.09s WALL (     111 calls)
     mix_pot      :      0.05s CPU      0.06s WALL (      53 calls)
     psymdvscf    :      1.35s CPU      1.35s WALL (      48 calls)
     newdq        :      0.27s CPU      0.28s WALL (      53 calls)
     adddvscf     :      0.07s CPU      0.08s WALL (    4977 calls)
     drhodvus     :      0.00s CPU      0.00s WALL (       9 calls)
 
     dvqpsi_us    :      0.50s CPU      0.55s WALL (    1260 calls)
     dvqpsi_us_on :      0.21s CPU      0.23s WALL (    1260 calls)
 
     cgsolve      :     14.72s CPU     16.16s WALL (    6237 calls)
     ch_psi       :     13.75s CPU     15.09s WALL (   67133 calls)
 
     ch_psi       :     13.75s CPU     15.09s WALL (   67133 calls)
     h_psi        :     11.88s CPU     13.04s WALL (   71849 calls)
     last         :      1.98s CPU      2.18s WALL (   67133 calls)
 
     h_psi        :     11.88s CPU     13.04s WALL (   71849 calls)
     add_vuspsi   :      0.48s CPU      0.53s WALL (   71849 calls)
 
     incdrhoscf   :      1.36s CPU      1.51s WALL (    6237 calls)
     addusdbec    :      0.14s CPU      0.15s WALL (    7329 calls)
 
     drhodvus     :      0.00s CPU      0.00s WALL (       9 calls)
 
      General routines
     calbec       :      1.85s CPU      2.04s WALL (  167584 calls)
     fft          :      0.07s CPU      0.08s WALL (    2058 calls)
     ffts         :      0.05s CPU      0.06s WALL (    1332 calls)
     fftw         :     10.77s CPU     11.83s WALL (  607114 calls)
     davcio       :      0.23s CPU      0.26s WALL (   32529 calls)
     write_rec    :      0.03s CPU      0.04s WALL (      62 calls)
 
 
     PHONON       :     42.25s CPU     44.65s WALL

 
   This run was terminated on:  18:22:54  13Mar2026            

=------------------------------------------------------------------------------=
   JOB DONE.
=------------------------------------------------------------------------------=
