
     Program BANDS v.7.1 starts on 13Mar2026 at 18:11:19 

     This program is part of the open-source Quantum ESPRESSO suite
     for quantum simulation of materials; please cite
         "P. Giannozzi et al., J. Phys.:Condens. Matter 21 395502 (2009);
         "P. Giannozzi et al., J. Phys.:Condens. Matter 29 465901 (2017);
         "P. Giannozzi et al., J. Chem. Phys. 152 154105 (2020);
          URL http://www.quantum-espresso.org", 
     in publications or presentations arising from this work. More details at
     http://www.quantum-espresso.org/quote

     Parallel version (MPI), running on     6 processors

     MPI processes distributed on     1 nodes
     R & G space division:  proc/nbgrp/npool/nimage =       6
     11440 MiB available memory on the printing compute node when the environment starts
 

     Reading xml data from directory:

     ./silicon.save/
     file Si.pbe-n-kjpaw_psl.1.0.0.UPF: wavefunction(s)  3S 3P renormalized

     IMPORTANT: XC functional enforced from input :
     Exchange-correlation= PBE
                           (   1   4   3   4   0   0   0)
     Any further DFT definition will be discarded
     Please, verify this is what you really want

 
     Parallelization info
     --------------------
     sticks:   dense  smooth     PW     G-vecs:    dense   smooth      PW
     Min         124      73     23                 2219     1029     177
     Max         125      74     24                 2222     1032     179
     Sum         745     439    139                13323     6183    1067
 
     Using Slab Decomposition
 

     Check: negative core charge=   -0.000001
     Reading collected, re-writing distributed wavefunctions
     high-symmetry point:  0.5000 0.5000 0.5000   x coordinate   0.0000
     high-symmetry point:  0.0000 0.0000 0.0000   x coordinate   0.8660
     high-symmetry point:  1.0000 0.0000 0.0000   x coordinate   1.8660
     high-symmetry point:  1.0000 0.2500 0.2500   x coordinate   2.2196
     high-symmetry point:  0.0000 0.0000 0.0000   x coordinate   3.2802

     Plottable bands (eV) written to file si_bands.dat.gnu
     Bands written to file si_bands.dat

 **************************************************************************

                    xk=(   0.50000,   0.50000,   0.50000  )

     zone border point and non-symmorphic group 
     symmetry decomposition not available

 **************************************************************************

 **************************************************************************

                    xk=(   0.47500,   0.47500,   0.47500  )

     point group C_3v (3m)  
     there are  3 classes
     the character table:

       E     2C3   3s_v 
A_1    1.00  1.00  1.00
A_2    1.00  1.00 -1.00
E      2.00 -1.00  0.00

     the symmetry operations in each class and the name of the first element:

     E        1
                                                                 
     2C3      2    3
                                                                 
     3s_v     4    5    6
                                                                 

     Band symmetry, C_3v (3m)   point group:

     e(  1 -  1) =     -3.61774  eV     1   --> A_1  L_1       
     e(  2 -  2) =     -0.86550  eV     1   --> A_1  L_1       
     e(  3 -  4) =      4.76645  eV     2   --> E    L_3       
     e(  5 -  5) =      7.39032  eV     1   --> A_1  L_1       
     e(  6 -  7) =      9.29541  eV     2   --> E    L_3       
     e(  8 -  8) =     13.64783  eV     1   --> A_1  L_1       

 **************************************************************************

 **************************************************************************

                    xk=(   0.45000,   0.45000,   0.45000  )

     Band symmetry, C_3v (3m)   point group:

     e(  1 -  1) =     -3.71243  eV     1   --> A_1  L_1       
     e(  2 -  2) =     -0.72529  eV     1   --> A_1  L_1       
     e(  3 -  4) =      4.77978  eV     2   --> E    L_3       
     e(  5 -  5) =      7.40577  eV     1   --> A_1  L_1       
     e(  6 -  7) =      9.30959  eV     2   --> E    L_3       
     e(  8 -  8) =     13.66929  eV     1   --> A_1  L_1       

 **************************************************************************

 **************************************************************************

                    xk=(   0.42500,   0.42500,   0.42500  )

     Band symmetry, C_3v (3m)   point group:

     e(  1 -  1) =     -3.85169  eV     1   --> A_1  L_1       
     e(  2 -  2) =     -0.51029  eV     1   --> A_1  L_1       
     e(  3 -  4) =      4.80194  eV     2   --> E    L_3       
     e(  5 -  5) =      7.43152  eV     1   --> A_1  L_1       
     e(  6 -  7) =      9.33191  eV     2   --> E    L_3       
     e(  8 -  8) =     13.70210  eV     1   --> A_1  L_1       

 **************************************************************************

 **************************************************************************

                    xk=(   0.40000,   0.40000,   0.40000  )

     Band symmetry, C_3v (3m)   point group:

     e(  1 -  1) =     -4.01841  eV     1   --> A_1  L_1       
     e(  2 -  2) =     -0.23777  eV     1   --> A_1  L_1       
     e(  3 -  4) =      4.83290  eV     2   --> E    L_3       
     e(  5 -  5) =      7.46741  eV     1   --> A_1  L_1       
     e(  6 -  7) =      9.36043  eV     2   --> E    L_3       
     e(  8 -  8) =     13.74005  eV     1   --> A_1  L_1       

 **************************************************************************

 **************************************************************************

                    xk=(   0.37500,   0.37500,   0.37500  )

     Band symmetry, C_3v (3m)   point group:

     e(  1 -  1) =     -4.19905  eV     1   --> A_1  L_1       
     e(  2 -  2) =      0.07843  eV     1   --> A_1  L_1       
     e(  3 -  4) =      4.87262  eV     2   --> E    L_3       
     e(  5 -  5) =      7.51327  eV     1   --> A_1  L_1       
     e(  6 -  7) =      9.39224  eV     2   --> E    L_3       
     e(  8 -  8) =     13.76941  eV     1   --> A_1  L_1       

 **************************************************************************

 **************************************************************************

                    xk=(   0.35000,   0.35000,   0.35000  )

     Band symmetry, C_3v (3m)   point group:

     e(  1 -  1) =     -4.38414  eV     1   --> A_1  L_1       
     e(  2 -  2) =      0.42850  eV     1   --> A_1  L_1       
     e(  3 -  4) =      4.92094  eV     2   --> E    L_3       
     e(  5 -  5) =      7.56878  eV     1   --> A_1  L_1       
     e(  6 -  7) =      9.42324  eV     2   --> E    L_3       
     e(  8 -  8) =     13.75911  eV     1   --> A_1  L_1       

 **************************************************************************

 **************************************************************************

                    xk=(   0.32500,   0.32500,   0.32500  )

     Band symmetry, C_3v (3m)   point group:

     e(  1 -  1) =     -4.56731  eV     1   --> A_1  L_1       
     e(  2 -  2) =      0.80559  eV     1   --> A_1  L_1       
     e(  3 -  4) =      4.97770  eV     2   --> E    L_3       
     e(  5 -  5) =      7.63364  eV     1   --> A_1  L_1       
     e(  6 -  7) =      9.44828  eV     2   --> E    L_3       
     e(  8 -  8) =     13.65141  eV     1   --> A_1  L_1       

 **************************************************************************

 **************************************************************************

                    xk=(   0.30000,   0.30000,   0.30000  )

     Band symmetry, C_3v (3m)   point group:

     e(  1 -  1) =     -4.74431  eV     1   --> A_1  L_1       
     e(  2 -  2) =      1.20485  eV     1   --> A_1  L_1       
     e(  3 -  4) =      5.04261  eV     2   --> E    L_3       
     e(  5 -  5) =      7.70728  eV     1   --> A_1  L_1       
     e(  6 -  7) =      9.46112  eV     2   --> E    L_3       
     e(  8 -  8) =     13.40453  eV     1   --> A_1  L_1       

 **************************************************************************

 **************************************************************************

                    xk=(   0.27500,   0.27500,   0.27500  )

     Band symmetry, C_3v (3m)   point group:

     e(  1 -  1) =     -4.91229  eV     1   --> A_1  L_1       
     e(  2 -  2) =      1.62261  eV     1   --> A_1  L_1       
     e(  3 -  4) =      5.11526  eV     2   --> E    L_3       
     e(  5 -  5) =      7.78898  eV     1   --> A_1  L_1       
     e(  6 -  7) =      9.45507  eV     2   --> E    L_3       
     e(  8 -  8) =     13.05246  eV     1   --> A_1  L_1       

 **************************************************************************

 **************************************************************************

                    xk=(   0.25000,   0.25000,   0.25000  )

     Band symmetry, C_3v (3m)   point group:

     e(  1 -  1) =     -5.06925  eV     1   --> A_1  L_1       
     e(  2 -  2) =      2.05585  eV     1   --> A_1  L_1       
     e(  3 -  4) =      5.19505  eV     2   --> E    L_3       
     e(  5 -  5) =      7.87781  eV     1   --> A_1  L_1       
     e(  6 -  7) =      9.42415  eV     2   --> E    L_3       
     e(  8 -  8) =     12.64707  eV     1   --> A_1  L_1       

 **************************************************************************

 **************************************************************************

                    xk=(   0.22500,   0.22500,   0.22500  )

     Band symmetry, C_3v (3m)   point group:

     e(  1 -  1) =     -5.21380  eV     1   --> A_1  L_1       
     e(  2 -  2) =      2.50182  eV     1   --> A_1  L_1       
     e(  3 -  4) =      5.28116  eV     2   --> E    L_3       
     e(  5 -  5) =      7.97246  eV     1   --> A_1  L_1       
     e(  6 -  7) =      9.36485  eV     2   --> E    L_3       
     e(  8 -  8) =     12.21630  eV     1   --> A_1  L_1       

 **************************************************************************

 **************************************************************************

                    xk=(   0.20000,   0.20000,   0.20000  )

     Band symmetry, C_3v (3m)   point group:

     e(  1 -  1) =     -5.34490  eV     1   --> A_1  L_1       
     e(  2 -  2) =      2.95772  eV     1   --> A_1  L_1       
     e(  3 -  4) =      5.37234  eV     2   --> E    L_3       
     e(  5 -  5) =      8.07110  eV     1   --> A_1  L_1       
     e(  6 -  7) =      9.27731  eV     2   --> E    L_3       
     e(  8 -  8) =     11.77261  eV     1   --> A_1  L_1       

 **************************************************************************

 **************************************************************************

                    xk=(   0.17500,   0.17500,   0.17500  )

     Band symmetry, C_3v (3m)   point group:

     e(  1 -  1) =     -5.46184  eV     1   --> A_1  L_1       
     e(  2 -  2) =      3.42014  eV     1   --> A_1  L_1       
     e(  3 -  4) =      5.46700  eV     2   --> E    L_3       
     e(  5 -  5) =      8.17139  eV     1   --> A_1  L_1       
     e(  6 -  7) =      9.16604  eV     2   --> E    L_3       
     e(  8 -  8) =     11.32247  eV     1   --> A_1  L_1       

 **************************************************************************

 **************************************************************************

                    xk=(   0.15000,   0.15000,   0.15000  )

     Band symmetry, C_3v (3m)   point group:

     e(  1 -  1) =     -5.56403  eV     1   --> A_1  L_1       
     e(  2 -  2) =      3.88492  eV     1   --> A_1  L_1       
     e(  3 -  4) =      5.56294  eV     2   --> E    L_3       
     e(  5 -  5) =      8.27025  eV     1   --> A_1  L_1       
     e(  6 -  7) =      9.03886  eV     2   --> E    L_3       
     e(  8 -  8) =     10.87106  eV     1   --> A_1  L_1       

 **************************************************************************

 **************************************************************************

                    xk=(   0.12500,   0.12500,   0.12500  )

     Band symmetry, C_3v (3m)   point group:

     e(  1 -  1) =     -5.65108  eV     1   --> A_1  L_1       
     e(  2 -  2) =      4.34610  eV     1   --> A_1  L_1       
     e(  3 -  4) =      5.65709  eV     2   --> E    L_3       
     e(  5 -  5) =      8.36330  eV     1   --> A_1  L_1       
     e(  6 -  7) =      8.90547  eV     2   --> E    L_3       
     e(  8 -  8) =     10.42466  eV     1   --> A_1  L_1       

 **************************************************************************

 **************************************************************************

                    xk=(   0.10000,   0.10000,   0.10000  )

     Band symmetry, C_3v (3m)   point group:

     e(  1 -  1) =     -5.72267  eV     1   --> A_1  L_1       
     e(  2 -  2) =      4.79438  eV     1   --> A_1  L_1       
     e(  3 -  4) =      5.74554  eV     2   --> E    L_3       
     e(  5 -  5) =      8.44457  eV     1   --> A_1  L_1       
     e(  6 -  7) =      8.77613  eV     2   --> E    L_3       
     e(  8 -  8) =      9.99380  eV     1   --> A_1  L_1       

 **************************************************************************

 **************************************************************************

                    xk=(   0.07500,   0.07500,   0.07500  )

     Band symmetry, C_3v (3m)   point group:

     e(  1 -  1) =     -5.77857  eV     1   --> A_1  L_1       
     e(  2 -  2) =      5.21431  eV     1   --> A_1  L_1       
     e(  3 -  4) =      5.82352  eV     2   --> E    L_3       
     e(  5 -  5) =      8.50520  eV     1   --> A_1  L_1       
     e(  6 -  7) =      8.66115  eV     2   --> E    L_3       
     e(  8 -  8) =      9.59776  eV     1   --> A_1  L_1       

 **************************************************************************

 **************************************************************************

                    xk=(   0.05000,   0.05000,   0.05000  )

     Band symmetry, C_3v (3m)   point group:

     e(  1 -  1) =     -5.81861  eV     1   --> A_1  L_1       
     e(  2 -  2) =      5.57868  eV     1   --> A_1  L_1       
     e(  3 -  4) =      5.88520  eV     2   --> E    L_3       
     e(  5 -  5) =      8.53136  eV     1   --> A_1  L_1       
     e(  6 -  7) =      8.57016  eV     2   --> E    L_3       
     e(  8 -  8) =      9.27246  eV     1   --> A_1  L_1       

 **************************************************************************

 **************************************************************************

                    xk=(   0.02500,   0.02500,   0.02500  )

     Band symmetry, C_3v (3m)   point group:

     e(  1 -  1) =     -5.84268  eV     1   --> A_1  L_1       
     e(  2 -  2) =      5.84062  eV     1   --> A_1  L_1       
     e(  3 -  4) =      5.92512  eV     2   --> E    L_3       
     e(  5 -  6) =      8.51158  eV     2   --> E    L_3       
     e(  7 -  7) =      8.51338  eV     1   --> A_1  L_1       
     e(  8 -  8) =      9.06962  eV     1   --> A_1  L_1       

 **************************************************************************

 **************************************************************************

                    xk=(   0.00000,   0.00000,   0.00000  )

     point group O_h (m-3m) 
     there are 10 classes
     the character table:

       E     8C3   3C2   6C4   6C2'  i     8S6   3s_h  6S4   6s_d 
A_1g   1.00  1.00  1.00  1.00  1.00  1.00  1.00  1.00  1.00  1.00
A_2g   1.00  1.00  1.00 -1.00 -1.00  1.00  1.00  1.00 -1.00 -1.00
E_g    2.00 -1.00  2.00  0.00  0.00  2.00 -1.00  2.00  0.00  0.00
T_1g   3.00  0.00 -1.00  1.00 -1.00  3.00  0.00 -1.00  1.00 -1.00
T_2g   3.00  0.00 -1.00 -1.00  1.00  3.00  0.00 -1.00 -1.00  1.00
A_1u   1.00  1.00  1.00  1.00  1.00 -1.00 -1.00 -1.00 -1.00 -1.00
A_2u   1.00  1.00  1.00 -1.00 -1.00 -1.00 -1.00 -1.00  1.00  1.00
E_u    2.00 -1.00  2.00  0.00  0.00 -2.00  1.00 -2.00  0.00  0.00
T_1u   3.00  0.00 -1.00  1.00 -1.00 -3.00  0.00  1.00 -1.00  1.00
T_2u   3.00  0.00 -1.00 -1.00  1.00 -3.00  0.00  1.00  1.00 -1.00

     the symmetry operations in each class and the name of the first element:

     E        1
                                                                 
     8C3     17   19   20   18   24   21   22   23
                                                                 
     3C2      2    4    3
                                                                 
     6C4      7    8   15   16   12   11
                                                                 
     6C2'     5    6   14   13   10    9
                                                                 
     i       25
                                                                 
     8S6     41   43   44   42   48   45   46   47
                                                                 
     3s_h    26   28   27
                                                                 
     6S4     31   32   39   40   36   35
                                                                 
     6s_d    29   30   38   37   34   33
                                                                 

     Band symmetry, O_h (m-3m)  point group:

     e(  1 -  1) =     -5.85071  eV     1   --> A_1g G_1   G_1+
     e(  2 -  4) =      5.93897  eV     3   --> T_2g G_25' G_5+
     e(  5 -  7) =      8.49133  eV     3   --> T_1u G_15  G_4-
     e(  8 -  8) =      9.00739  eV     1   --> A_2u G_2'  G_2-

 **************************************************************************

 **************************************************************************

                    xk=(   0.03333,   0.00000,   0.00000  )

     point group C_4v (4mm) 
     there are  5 classes
     the character table:

       E     2C4   C2    2s_v  2s_d 
A_1    1.00  1.00  1.00  1.00  1.00
A_2    1.00  1.00  1.00 -1.00 -1.00
B_1    1.00 -1.00  1.00  1.00 -1.00
B_2    1.00 -1.00  1.00 -1.00  1.00
E      2.00  0.00 -2.00  0.00  0.00

     the symmetry operations in each class and the name of the first element:

     E        1
                                                                 
     2C4      3    4
                                                                 
     C2       2
                                                                 
     2s_v     5    6
                                                                 
     2s_d     7    8
                                                                 

     Band symmetry, C_4v (4mm)  point group:

     e(  1 -  1) =     -5.84595  eV     1   --> A_1  G_1 D_1   
     e(  2 -  2) =      5.90373  eV     1   --> B_2  G_4 D_2'  
     e(  3 -  4) =      5.91856  eV     2   --> E    G_5 D_5   
     e(  5 -  5) =      8.47949  eV     1   --> A_1  G_1 D_1   
     e(  6 -  7) =      8.51762  eV     2   --> E    G_5 D_5   
     e(  8 -  8) =      9.04196  eV     1   --> B_2  G_4 D_2'  

 **************************************************************************

 **************************************************************************

                    xk=(   0.06667,   0.00000,   0.00000  )

     Band symmetry, C_4v (4mm)  point group:

     e(  1 -  1) =     -5.83167  eV     1   --> A_1  G_1 D_1   
     e(  2 -  2) =      5.80265  eV     1   --> B_2  G_4 D_2'  
     e(  3 -  4) =      5.85979  eV     2   --> E    G_5 D_5   
     e(  5 -  5) =      8.44462  eV     1   --> A_1  G_1 D_1   
     e(  6 -  7) =      8.59400  eV     2   --> E    G_5 D_5   
     e(  8 -  8) =      9.14048  eV     1   --> B_2  G_4 D_2'  

 **************************************************************************

 **************************************************************************

                    xk=(   0.10000,   0.00000,   0.00000  )

     Band symmetry, C_4v (4mm)  point group:

     e(  1 -  1) =     -5.80789  eV     1   --> A_1  G_1 D_1   
     e(  2 -  2) =      5.64711  eV     1   --> B_2  G_4 D_2'  
     e(  3 -  4) =      5.76900  eV     2   --> E    G_5 D_5   
     e(  5 -  5) =      8.38852  eV     1   --> A_1  G_1 D_1   
     e(  6 -  7) =      8.71410  eV     2   --> E    G_5 D_5   
     e(  8 -  8) =      9.28981  eV     1   --> B_2  G_4 D_2'  

 **************************************************************************

 **************************************************************************

                    xk=(   0.13333,   0.00000,   0.00000  )

     Band symmetry, C_4v (4mm)  point group:

     e(  1 -  1) =     -5.77462  eV     1   --> A_1  G_1 D_1   
     e(  2 -  2) =      5.45028  eV     1   --> B_2  G_4 D_2'  
     e(  3 -  4) =      5.65390  eV     2   --> E    G_5 D_5   
     e(  5 -  5) =      8.31383  eV     1   --> A_1  G_1 D_1   
     e(  6 -  7) =      8.87002  eV     2   --> E    G_5 D_5   
     e(  8 -  8) =      9.47331  eV     1   --> B_2  G_4 D_2'  

 **************************************************************************

 **************************************************************************

                    xk=(   0.16667,   0.00000,   0.00000  )

     Band symmetry, C_4v (4mm)  point group:

     e(  1 -  1) =     -5.73188  eV     1   --> A_1  G_1 D_1   
     e(  2 -  2) =      5.22366  eV     1   --> B_2  G_4 D_2'  
     e(  3 -  4) =      5.52193  eV     2   --> E    G_5 D_5   
     e(  5 -  5) =      8.22376  eV     1   --> A_1  G_1 D_1   
     e(  6 -  7) =      9.05429  eV     2   --> E    G_5 D_5   
     e(  8 -  8) =      9.67341  eV     1   --> B_2  G_4 D_2'  

 **************************************************************************

 **************************************************************************

                    xk=(   0.20000,   0.00000,   0.00000  )

     Band symmetry, C_4v (4mm)  point group:

     e(  1 -  1) =     -5.67969  eV     1   --> A_1  G_1 D_1   
     e(  2 -  2) =      4.97616  eV     1   --> B_2  G_4 D_2'  
     e(  3 -  4) =      5.37928  eV     2   --> E    G_5 D_5   
     e(  5 -  5) =      8.12174  eV     1   --> A_1  G_1 D_1   
     e(  6 -  7) =      9.26088  eV     2   --> E    G_5 D_5   
     e(  8 -  8) =      9.87096  eV     1   --> B_2  G_4 D_2'  

 **************************************************************************

 **************************************************************************

                    xk=(   0.23333,   0.00000,   0.00000  )

     Band symmetry, C_4v (4mm)  point group:

     e(  1 -  1) =     -5.61810  eV     1   --> A_1  G_1 D_1   
     e(  2 -  2) =      4.71396  eV     1   --> B_2  G_4 D_2'  
     e(  3 -  4) =      5.23049  eV     2   --> E    G_5 D_5   
     e(  5 -  5) =      8.01093  eV     1   --> A_1  G_1 D_1   
     e(  6 -  7) =      9.48489  eV     2   --> E    G_5 D_5   
     e(  8 -  8) =     10.04247  eV     1   --> B_2  G_4 D_2'  

 **************************************************************************

 **************************************************************************

                    xk=(   0.26667,   0.00000,   0.00000  )

     Band symmetry, C_4v (4mm)  point group:

     e(  1 -  1) =     -5.54713  eV     1   --> A_1  G_1 D_1   
     e(  2 -  2) =      4.44140  eV     1   --> B_2  G_4 D_2'  
     e(  3 -  4) =      5.07905  eV     2   --> E    G_5 D_5   
     e(  5 -  5) =      7.89431  eV     1   --> A_1  G_1 D_1   
     e(  6 -  7) =      9.72277  eV     2   --> E    G_5 D_5   
     e(  8 -  8) =     10.15830  eV     1   --> B_2  G_4 D_2'  

 **************************************************************************

 **************************************************************************

                    xk=(   0.30000,   0.00000,   0.00000  )

     Band symmetry, C_4v (4mm)  point group:

     e(  1 -  1) =     -5.46683  eV     1   --> A_1  G_1 D_1   
     e(  2 -  2) =      4.16147  eV     1   --> B_2  G_4 D_2'  
     e(  3 -  4) =      4.92743  eV     2   --> E    G_5 D_5   
     e(  5 -  5) =      7.77438  eV     1   --> A_1  G_1 D_1   
     e(  6 -  7) =      9.97179  eV     2   --> E    G_5 D_5   
     e(  8 -  8) =     10.18905  eV     1   --> B_2  G_4 D_2'  

 **************************************************************************

 **************************************************************************

                    xk=(   0.33333,   0.00000,   0.00000  )

     Band symmetry, C_4v (4mm)  point group:

     e(  1 -  1) =     -5.37726  eV     1   --> A_1  G_1 D_1   
     e(  2 -  2) =      3.87641  eV     1   --> B_2  G_4 D_2'  
     e(  3 -  4) =      4.77769  eV     2   --> E    G_5 D_5   
     e(  5 -  5) =      7.65362  eV     1   --> A_1  G_1 D_1   
     e(  6 -  6) =     10.12380  eV     1   --> B_2  G_4 D_2'  
     e(  7 -  8) =     10.22994  eV     2   --> E    G_5 D_5   

 **************************************************************************

 **************************************************************************

                    xk=(   0.36667,   0.00000,   0.00000  )

     Band symmetry, C_4v (4mm)  point group:

     e(  1 -  1) =     -5.27848  eV     1   --> A_1  G_1 D_1   
     e(  2 -  2) =      3.58765  eV     1   --> B_2  G_4 D_2'  
     e(  3 -  4) =      4.63114  eV     2   --> E    G_5 D_5   
     e(  5 -  5) =      7.53384  eV     1   --> A_1  G_1 D_1   
     e(  6 -  6) =      9.97869  eV     1   --> B_2  G_4 D_2'  
     e(  7 -  8) =     10.49562  eV     2   --> E    G_5 D_5   

 **************************************************************************

 **************************************************************************

                    xk=(   0.40000,   0.00000,   0.00000  )

     Band symmetry, C_4v (4mm)  point group:

     e(  1 -  1) =     -5.17055  eV     1   --> A_1  G_1 D_1   
     e(  2 -  2) =      3.29631  eV     1   --> B_2  G_4 D_2'  
     e(  3 -  4) =      4.48894  eV     2   --> E    G_5 D_5   
     e(  5 -  5) =      7.41671  eV     1   --> A_1  G_1 D_1   
     e(  6 -  6) =      9.78155  eV     1   --> B_2  G_4 D_2'  
     e(  7 -  8) =     10.76767  eV     2   --> E    G_5 D_5   

 **************************************************************************

 **************************************************************************

                    xk=(   0.43333,   0.00000,   0.00000  )

     Band symmetry, C_4v (4mm)  point group:

     e(  1 -  1) =     -5.05355  eV     1   --> A_1  G_1 D_1   
     e(  2 -  2) =      3.00321  eV     1   --> B_2  G_4 D_2'  
     e(  3 -  4) =      4.35189  eV     2   --> E    G_5 D_5   
     e(  5 -  5) =      7.30360  eV     1   --> A_1  G_1 D_1   
     e(  6 -  6) =      9.55589  eV     1   --> B_2  G_4 D_2'  
     e(  7 -  8) =     11.04511  eV     2   --> E    G_5 D_5   

 **************************************************************************

 **************************************************************************

                    xk=(   0.46667,   0.00000,   0.00000  )

     Band symmetry, C_4v (4mm)  point group:

     e(  1 -  1) =     -4.92755  eV     1   --> A_1  G_1 D_1   
     e(  2 -  2) =      2.70901  eV     1   --> B_2  G_4 D_2'  
     e(  3 -  4) =      4.22067  eV     2   --> E    G_5 D_5   
     e(  5 -  5) =      7.19570  eV     1   --> A_1  G_1 D_1   
     e(  6 -  6) =      9.31733  eV     1   --> B_2  G_4 D_2'  
     e(  7 -  8) =     11.32742  eV     2   --> E    G_5 D_5   

 **************************************************************************

 **************************************************************************

                    xk=(   0.50000,   0.00000,   0.00000  )

     Band symmetry, C_4v (4mm)  point group:

     e(  1 -  1) =     -4.79267  eV     1   --> A_1  G_1 D_1   
     e(  2 -  2) =      2.41422  eV     1   --> B_2  G_4 D_2'  
     e(  3 -  4) =      4.09577  eV     2   --> E    G_5 D_5   
     e(  5 -  5) =      7.09393  eV     1   --> A_1  G_1 D_1   
     e(  6 -  6) =      9.07552  eV     1   --> B_2  G_4 D_2'  
     e(  7 -  8) =     11.61355  eV     2   --> E    G_5 D_5   

 **************************************************************************

 **************************************************************************

                    xk=(   0.53333,   0.00000,   0.00000  )

     Band symmetry, C_4v (4mm)  point group:

     e(  1 -  1) =     -4.64900  eV     1   --> A_1  G_1 D_1   
     e(  2 -  2) =      2.11931  eV     1   --> B_2  G_4 D_2'  
     e(  3 -  4) =      3.97764  eV     2   --> E    G_5 D_5   
     e(  5 -  5) =      6.99917  eV     1   --> A_1  G_1 D_1   
     e(  6 -  6) =      8.83650  eV     1   --> B_2  G_4 D_2'  
     e(  7 -  8) =     11.90325  eV     2   --> E    G_5 D_5   

 **************************************************************************

 **************************************************************************

                    xk=(   0.56667,   0.00000,   0.00000  )

     Band symmetry, C_4v (4mm)  point group:

     e(  1 -  1) =     -4.49664  eV     1   --> A_1  G_1 D_1   
     e(  2 -  2) =      1.82466  eV     1   --> B_2  G_4 D_2'  
     e(  3 -  4) =      3.86662  eV     2   --> E    G_5 D_5   
     e(  5 -  5) =      6.91214  eV     1   --> A_1  G_1 D_1   
     e(  6 -  6) =      8.60397  eV     1   --> B_2  G_4 D_2'  
     e(  7 -  8) =     12.19610  eV     2   --> E    G_5 D_5   

 **************************************************************************

 **************************************************************************

                    xk=(   0.60000,   0.00000,   0.00000  )

     Band symmetry, C_4v (4mm)  point group:

     e(  1 -  1) =     -4.33573  eV     1   --> A_1  G_1 D_1   
     e(  2 -  2) =      1.53070  eV     1   --> B_2  G_4 D_2'  
     e(  3 -  4) =      3.76294  eV     2   --> E    G_5 D_5   
     e(  5 -  5) =      6.83352  eV     1   --> A_1  G_1 D_1   
     e(  6 -  6) =      8.38070  eV     1   --> B_2  G_4 D_2'  
     e(  7 -  8) =     12.49187  eV     2   --> E    G_5 D_5   

 **************************************************************************

 **************************************************************************

                    xk=(   0.63333,   0.00000,   0.00000  )

     Band symmetry, C_4v (4mm)  point group:

     e(  1 -  1) =     -4.16639  eV     1   --> A_1  G_1 D_1   
     e(  2 -  2) =      1.23786  eV     1   --> B_2  G_4 D_2'  
     e(  3 -  4) =      3.66695  eV     2   --> E    G_5 D_5   
     e(  5 -  5) =      6.76381  eV     1   --> A_1  G_1 D_1   
     e(  6 -  6) =      8.16830  eV     1   --> B_2  G_4 D_2'  
     e(  7 -  8) =     12.79048  eV     2   --> E    G_5 D_5   

 **************************************************************************

 **************************************************************************

                    xk=(   0.66667,   0.00000,   0.00000  )

     Band symmetry, C_4v (4mm)  point group:

     e(  1 -  1) =     -3.98877  eV     1   --> A_1  G_1 D_1   
     e(  2 -  2) =      0.94647  eV     1   --> B_2  G_4 D_2'  
     e(  3 -  4) =      3.57876  eV     2   --> E    G_5 D_5   
     e(  5 -  5) =      6.70348  eV     1   --> A_1  G_1 D_1   
     e(  6 -  6) =      7.96788  eV     1   --> B_2  G_4 D_2'  
     e(  7 -  8) =     13.09128  eV     2   --> E    G_5 D_5   

 **************************************************************************

 **************************************************************************

                    xk=(   0.70000,   0.00000,   0.00000  )

     Band symmetry, C_4v (4mm)  point group:

     e(  1 -  1) =     -3.80304  eV     1   --> A_1  G_1 D_1   
     e(  2 -  2) =      0.65694  eV     1   --> B_2  G_4 D_2'  
     e(  3 -  4) =      3.49857  eV     2   --> E    G_5 D_5   
     e(  5 -  5) =      6.65301  eV     1   --> A_1  G_1 D_1   
     e(  6 -  6) =      7.78019  eV     1   --> B_2  G_4 D_2'  
     e(  7 -  8) =     13.39426  eV     2   --> E    G_5 D_5   

 **************************************************************************

 **************************************************************************

                    xk=(   0.73333,   0.00000,   0.00000  )

     Band symmetry, C_4v (4mm)  point group:

     e(  1 -  1) =     -3.60935  eV     1   --> A_1  G_1 D_1   
     e(  2 -  2) =      0.36968  eV     1   --> B_2  G_4 D_2'  
     e(  3 -  4) =      3.42650  eV     2   --> E    G_5 D_5   
     e(  5 -  5) =      6.61280  eV     1   --> A_1  G_1 D_1   
     e(  6 -  6) =      7.60573  eV     1   --> B_2  G_4 D_2'  
     e(  7 -  8) =     13.69913  eV     2   --> E    G_5 D_5   

 **************************************************************************

 **************************************************************************

                    xk=(   0.76667,   0.00000,   0.00000  )

     Band symmetry, C_4v (4mm)  point group:

     e(  1 -  1) =     -3.40789  eV     1   --> A_1  G_1 D_1   
     e(  2 -  2) =      0.08508  eV     1   --> B_2  G_4 D_2'  
     e(  3 -  4) =      3.36267  eV     2   --> E    G_5 D_5   
     e(  5 -  5) =      6.58323  eV     1   --> A_1  G_1 D_1   
     e(  6 -  6) =      7.44481  eV     1   --> B_2  G_4 D_2'  
     e(  7 -  8) =     14.00551  eV     2   --> E    G_5 D_5   

 **************************************************************************

 **************************************************************************

                    xk=(   0.80000,   0.00000,   0.00000  )

     Band symmetry, C_4v (4mm)  point group:

     e(  1 -  1) =     -3.19888  eV     1   --> A_1  G_1 D_1   
     e(  2 -  2) =     -0.19645  eV     1   --> B_2  G_4 D_2'  
     e(  3 -  4) =      3.30717  eV     2   --> E    G_5 D_5   
     e(  5 -  5) =      6.56460  eV     1   --> A_1  G_1 D_1   
     e(  6 -  6) =      7.29762  eV     1   --> B_2  G_4 D_2'  
     e(  7 -  8) =     14.31271  eV     2   --> E    G_5 D_5   

 **************************************************************************

 **************************************************************************

                    xk=(   0.83333,   0.00000,   0.00000  )

     Band symmetry, C_4v (4mm)  point group:

     e(  1 -  1) =     -2.98253  eV     1   --> A_1  G_1 D_1   
     e(  2 -  2) =     -0.47452  eV     1   --> B_2  G_4 D_2'  
     e(  3 -  4) =      3.26007  eV     2   --> E    G_5 D_5   
     e(  5 -  5) =      6.55718  eV     1   --> A_1  G_1 D_1   
     e(  6 -  6) =      7.16409  eV     1   --> B_2  G_4 D_2'  
     e(  7 -  8) =     14.61953  eV     2   --> E    G_5 D_5   

 **************************************************************************

 **************************************************************************

                    xk=(   0.86667,   0.00000,   0.00000  )

     Band symmetry, C_4v (4mm)  point group:

     e(  1 -  1) =     -2.75905  eV     1   --> A_1  G_1 D_1   
     e(  2 -  2) =     -0.74872  eV     1   --> B_2  G_4 D_2'  
     e(  3 -  4) =      3.22147  eV     2   --> E    G_5 D_5   
     e(  5 -  5) =      6.56142  eV     1   --> A_1  G_1 D_1   
     e(  6 -  6) =      7.04431  eV     1   --> B_2  G_4 D_2'  
     e(  7 -  8) =     14.92375  eV     2   --> E    G_5 D_5   

 **************************************************************************

 **************************************************************************

                    xk=(   0.90000,   0.00000,   0.00000  )

     Band symmetry, C_4v (4mm)  point group:

     e(  1 -  1) =     -2.52872  eV     1   --> A_1  G_1 D_1   
     e(  2 -  2) =     -1.01867  eV     1   --> B_2  G_4 D_2'  
     e(  3 -  4) =      3.19139  eV     2   --> E    G_5 D_5   
     e(  5 -  5) =      6.57754  eV     1   --> A_1  G_1 D_1   
     e(  6 -  6) =      6.93816  eV     1   --> B_2  G_4 D_2'  
     e(  7 -  8) =     15.22059  eV     2   --> E    G_5 D_5   

 **************************************************************************

 **************************************************************************

                    xk=(   0.93333,   0.00000,   0.00000  )

     Band symmetry, C_4v (4mm)  point group:

     e(  1 -  1) =     -2.29178  eV     1   --> A_1  G_1 D_1   
     e(  2 -  2) =     -1.28398  eV     1   --> B_2  G_4 D_2'  
     e(  3 -  4) =      3.16988  eV     2   --> E    G_5 D_5   
     e(  5 -  5) =      6.60580  eV     1   --> A_1  G_1 D_1   
     e(  6 -  6) =      6.84549  eV     1   --> B_2  G_4 D_2'  
     e(  7 -  8) =     15.49859  eV     2   --> E    G_5 D_5   

 **************************************************************************

 **************************************************************************

                    xk=(   0.96667,   0.00000,   0.00000  )

     Band symmetry, C_4v (4mm)  point group:

     e(  1 -  1) =     -2.04852  eV     1   --> A_1  G_1 D_1   
     e(  2 -  2) =     -1.54430  eV     1   --> B_2  G_4 D_2'  
     e(  3 -  4) =      3.15696  eV     2   --> E    G_5 D_5   
     e(  5 -  5) =      6.64648  eV     1   --> A_1  G_1 D_1   
     e(  6 -  6) =      6.76609  eV     1   --> B_2  G_4 D_2'  
     e(  7 -  8) =     15.72638  eV     2   --> E    G_5 D_5   

 **************************************************************************

 **************************************************************************

                    xk=(   1.00000,   0.00000,   0.00000  )

     zone border point and non-symmorphic group 
     symmetry decomposition not available

 **************************************************************************

 **************************************************************************

                    xk=(   1.00000,   0.02500,   0.02500  )

     zone border point and non-symmorphic group 
     symmetry decomposition not available

 **************************************************************************

 **************************************************************************

                    xk=(   1.00000,   0.05000,   0.05000  )

     zone border point and non-symmorphic group 
     symmetry decomposition not available

 **************************************************************************

 **************************************************************************

                    xk=(   1.00000,   0.07500,   0.07500  )

     zone border point and non-symmorphic group 
     symmetry decomposition not available

 **************************************************************************

 **************************************************************************

                    xk=(   1.00000,   0.10000,   0.10000  )

     zone border point and non-symmorphic group 
     symmetry decomposition not available

 **************************************************************************

 **************************************************************************

                    xk=(   1.00000,   0.12500,   0.12500  )

     zone border point and non-symmorphic group 
     symmetry decomposition not available

 **************************************************************************

 **************************************************************************

                    xk=(   1.00000,   0.15000,   0.15000  )

     zone border point and non-symmorphic group 
     symmetry decomposition not available

 **************************************************************************

 **************************************************************************

                    xk=(   1.00000,   0.17500,   0.17500  )

     zone border point and non-symmorphic group 
     symmetry decomposition not available

 **************************************************************************

 **************************************************************************

                    xk=(   1.00000,   0.20000,   0.20000  )

     zone border point and non-symmorphic group 
     symmetry decomposition not available

 **************************************************************************

 **************************************************************************

                    xk=(   1.00000,   0.22500,   0.22500  )

     zone border point and non-symmorphic group 
     symmetry decomposition not available

 **************************************************************************

 **************************************************************************

                    xk=(   1.00000,   0.25000,   0.25000  )

     zone border point and non-symmorphic group 
     symmetry decomposition not available

 **************************************************************************

 **************************************************************************

                    xk=(   0.96667,   0.24167,   0.24167  )

     point group C_s (m)    
     there are  2 classes
     the character table:

       E     s    
A'     1.00  1.00
A''    1.00 -1.00

     the symmetry operations in each class and the name of the first element:

     E        1
                                                                 
     s        2
                                                                 

     Band symmetry, C_s (m)     point group:

     e(  1 -  1) =     -2.21745  eV     1   --> A'             
     e(  2 -  2) =     -1.22036  eV     1   --> A'             
     e(  3 -  3) =      1.79898  eV     1   --> A'             
     e(  4 -  4) =      3.54708  eV     1   --> A''            
     e(  5 -  5) =      7.15483  eV     1   --> A'             
     e(  6 -  6) =      9.89083  eV     1   --> A'             
     e(  7 -  7) =     13.32712  eV     1   --> A''            
     e(  8 -  8) =     13.67942  eV     1   --> A'             

 **************************************************************************

 **************************************************************************

                    xk=(   0.93333,   0.23333,   0.23333  )

     Band symmetry, C_s (m)     point group:

     e(  1 -  1) =     -2.29984  eV     1   --> A'             
     e(  2 -  2) =     -1.14607  eV     1   --> A'             
     e(  3 -  3) =      1.86933  eV     1   --> A'             
     e(  4 -  4) =      3.53318  eV     1   --> A''            
     e(  5 -  5) =      7.14196  eV     1   --> A'             
     e(  6 -  6) =      9.74542  eV     1   --> A'             
     e(  7 -  7) =     13.25276  eV     1   --> A''            
     e(  8 -  8) =     13.45989  eV     1   --> A'             

 **************************************************************************

 **************************************************************************

                    xk=(   0.90000,   0.22500,   0.22500  )

     Band symmetry, C_s (m)     point group:

     e(  1 -  1) =     -2.44067  eV     1   --> A'             
     e(  2 -  2) =     -1.01267  eV     1   --> A'             
     e(  3 -  3) =      1.96275  eV     1   --> A'             
     e(  4 -  4) =      3.52816  eV     1   --> A''            
     e(  5 -  5) =      7.14092  eV     1   --> A'             
     e(  6 -  6) =      9.61423  eV     1   --> A'             
     e(  7 -  7) =     13.12958  eV     1   --> A''            
     e(  8 -  8) =     13.23886  eV     1   --> A'             

 **************************************************************************

 **************************************************************************

                    xk=(   0.86667,   0.21667,   0.21667  )

     Band symmetry, C_s (m)     point group:

     e(  1 -  1) =     -2.61511  eV     1   --> A'             
     e(  2 -  2) =     -0.84183  eV     1   --> A'             
     e(  3 -  3) =      2.07575  eV     1   --> A'             
     e(  4 -  4) =      3.53214  eV     1   --> A''            
     e(  5 -  5) =      7.15129  eV     1   --> A'             
     e(  6 -  6) =      9.49813  eV     1   --> A'             
     e(  7 -  7) =     12.98686  eV     1   --> A''            
     e(  8 -  8) =     13.01866  eV     1   --> A'             

 **************************************************************************

 **************************************************************************

                    xk=(   0.83333,   0.20833,   0.20833  )

     Band symmetry, C_s (m)     point group:

     e(  1 -  1) =     -2.80697  eV     1   --> A'             
     e(  2 -  2) =     -0.64715  eV     1   --> A'             
     e(  3 -  3) =      2.20532  eV     1   --> A'             
     e(  4 -  4) =      3.54522  eV     1   --> A''            
     e(  5 -  5) =      7.17242  eV     1   --> A'             
     e(  6 -  6) =      9.39816  eV     1   --> A'             
     e(  7 -  7) =     12.79992  eV     1   --> A'             
     e(  8 -  8) =     12.83675  eV     1   --> A''            

 **************************************************************************

 **************************************************************************

                    xk=(   0.80000,   0.20000,   0.20000  )

     Band symmetry, C_s (m)     point group:

     e(  1 -  1) =     -3.00699  eV     1   --> A'             
     e(  2 -  2) =     -0.43581  eV     1   --> A'             
     e(  3 -  3) =      2.34889  eV     1   --> A'             
     e(  4 -  4) =      3.56745  eV     1   --> A''            
     e(  5 -  5) =      7.20339  eV     1   --> A'             
     e(  6 -  6) =      9.31559  eV     1   --> A'             
     e(  7 -  7) =     12.58296  eV     1   --> A'             
     e(  8 -  8) =     12.68422  eV     1   --> A''            

 **************************************************************************

 **************************************************************************

                    xk=(   0.76667,   0.19167,   0.19167  )

     Band symmetry, C_s (m)     point group:

     e(  1 -  1) =     -3.20972  eV     1   --> A'             
     e(  2 -  2) =     -0.21164  eV     1   --> A'             
     e(  3 -  3) =      2.50425  eV     1   --> A'             
     e(  4 -  4) =      3.59887  eV     1   --> A''            
     e(  5 -  5) =      7.24298  eV     1   --> A'             
     e(  6 -  6) =      9.25187  eV     1   --> A'             
     e(  7 -  7) =     12.36801  eV     1   --> A'             
     e(  8 -  8) =     12.53130  eV     1   --> A''            

 **************************************************************************

 **************************************************************************

                    xk=(   0.73333,   0.18333,   0.18333  )

     Band symmetry, C_s (m)     point group:

     e(  1 -  1) =     -3.41170  eV     1   --> A'             
     e(  2 -  2) =      0.02324  eV     1   --> A'             
     e(  3 -  3) =      2.66945  eV     1   --> A'             
     e(  4 -  4) =      3.63949  eV     1   --> A''            
     e(  5 -  5) =      7.28967  eV     1   --> A'             
     e(  6 -  6) =      9.20864  eV     1   --> A'             
     e(  7 -  7) =     12.15528  eV     1   --> A'             
     e(  8 -  8) =     12.37841  eV     1   --> A''            

 **************************************************************************

 **************************************************************************

                    xk=(   0.70000,   0.17500,   0.17500  )

     Band symmetry, C_s (m)     point group:

     e(  1 -  1) =     -3.61065  eV     1   --> A'             
     e(  2 -  2) =      0.26755  eV     1   --> A'             
     e(  3 -  3) =      2.84273  eV     1   --> A'             
     e(  4 -  4) =      3.68927  eV     1   --> A''            
     e(  5 -  5) =      7.34164  eV     1   --> A'             
     e(  6 -  6) =      9.18760  eV     1   --> A'             
     e(  7 -  7) =     11.94495  eV     1   --> A'             
     e(  8 -  8) =     12.22506  eV     1   --> A''            

 **************************************************************************

 **************************************************************************

                    xk=(   0.66667,   0.16667,   0.16667  )

     Band symmetry, C_s (m)     point group:

     e(  1 -  1) =     -3.80492  eV     1   --> A'             
     e(  2 -  2) =      0.52045  eV     1   --> A'             
     e(  3 -  3) =      3.02250  eV     1   --> A'             
     e(  4 -  4) =      3.74819  eV     1   --> A''            
     e(  5 -  5) =      7.39694  eV     1   --> A'             
     e(  6 -  6) =      9.19063  eV     1   --> A'             
     e(  7 -  7) =     11.73737  eV     1   --> A'             
     e(  8 -  8) =     12.07034  eV     1   --> A''            

 **************************************************************************

 **************************************************************************

                    xk=(   0.63333,   0.15833,   0.15833  )

     Band symmetry, C_s (m)     point group:

     e(  1 -  1) =     -3.99330  eV     1   --> A'             
     e(  2 -  2) =      0.78138  eV     1   --> A'             
     e(  3 -  3) =      3.20730  eV     1   --> A'             
     e(  4 -  4) =      3.81618  eV     1   --> A''            
     e(  5 -  5) =      7.45366  eV     1   --> A'             
     e(  6 -  6) =      9.21895  eV     1   --> A'             
     e(  7 -  7) =     11.53304  eV     1   --> A'             
     e(  8 -  8) =     11.91289  eV     1   --> A''            

 **************************************************************************

 **************************************************************************

                    xk=(   0.60000,   0.15000,   0.15000  )

     Band symmetry, C_s (m)     point group:

     e(  1 -  1) =     -4.17488  eV     1   --> A'             
     e(  2 -  2) =      1.04991  eV     1   --> A'             
     e(  3 -  3) =      3.39576  eV     1   --> A'             
     e(  4 -  4) =      3.89309  eV     1   --> A''            
     e(  5 -  5) =      7.51025  eV     1   --> A'             
     e(  6 -  6) =      9.27303  eV     1   --> A'             
     e(  7 -  7) =     11.33274  eV     1   --> A'             
     e(  8 -  8) =     11.75114  eV     1   --> A''            

 **************************************************************************

 **************************************************************************

                    xk=(   0.56667,   0.14167,   0.14167  )

     Band symmetry, C_s (m)     point group:

     e(  1 -  1) =     -4.34896  eV     1   --> A'             
     e(  2 -  2) =      1.32567  eV     1   --> A'             
     e(  3 -  3) =      3.58660  eV     1   --> A'             
     e(  4 -  4) =      3.97878  eV     1   --> A''            
     e(  5 -  5) =      7.56569  eV     1   --> A'             
     e(  6 -  6) =      9.35187  eV     1   --> A'             
     e(  7 -  7) =     11.13795  eV     1   --> A'             
     e(  8 -  8) =     11.58327  eV     1   --> A''            

 **************************************************************************

 **************************************************************************

                    xk=(   0.53333,   0.13333,   0.13333  )

     Band symmetry, C_s (m)     point group:

     e(  1 -  1) =     -4.51495  eV     1   --> A'             
     e(  2 -  2) =      1.60832  eV     1   --> A'             
     e(  3 -  3) =      3.77855  eV     1   --> A'             
     e(  4 -  4) =      4.07307  eV     1   --> A''            
     e(  5 -  5) =      7.61978  eV     1   --> A'             
     e(  6 -  6) =      9.45219  eV     1   --> A'             
     e(  7 -  7) =     10.95107  eV     1   --> A'             
     e(  8 -  8) =     11.40779  eV     1   --> A''            

 **************************************************************************

 **************************************************************************

                    xk=(   0.50000,   0.12500,   0.12500  )

     Band symmetry, C_s (m)     point group:

     e(  1 -  1) =     -4.67239  eV     1   --> A'             
     e(  2 -  2) =      1.89755  eV     1   --> A'             
     e(  3 -  3) =      3.97049  eV     1   --> A'             
     e(  4 -  4) =      4.17575  eV     1   --> A''            
     e(  5 -  5) =      7.67297  eV     1   --> A'             
     e(  6 -  6) =      9.56707  eV     1   --> A'             
     e(  7 -  7) =     10.77688  eV     1   --> A'             
     e(  8 -  8) =     11.22326  eV     1   --> A''            

 **************************************************************************

 **************************************************************************

                    xk=(   0.46667,   0.11667,   0.11667  )

     Band symmetry, C_s (m)     point group:

     e(  1 -  1) =     -4.82090  eV     1   --> A'             
     e(  2 -  2) =      2.19298  eV     1   --> A'             
     e(  3 -  3) =      4.16126  eV     1   --> A'             
     e(  4 -  4) =      4.28647  eV     1   --> A''            
     e(  5 -  5) =      7.72627  eV     1   --> A'             
     e(  6 -  6) =      9.68223  eV     1   --> A'             
     e(  7 -  7) =     10.62604  eV     1   --> A'             
     e(  8 -  8) =     11.02900  eV     1   --> A''            

 **************************************************************************

 **************************************************************************

                    xk=(   0.43333,   0.10833,   0.10833  )

     Band symmetry, C_s (m)     point group:

     e(  1 -  1) =     -4.96018  eV     1   --> A'             
     e(  2 -  2) =      2.49414  eV     1   --> A'             
     e(  3 -  3) =      4.34975  eV     1   --> A'             
     e(  4 -  4) =      4.40484  eV     1   --> A''            
     e(  5 -  5) =      7.78067  eV     1   --> A'             
     e(  6 -  6) =      9.76874  eV     1   --> A'             
     e(  7 -  7) =     10.52157  eV     1   --> A'             
     e(  8 -  8) =     10.82476  eV     1   --> A''            

 **************************************************************************

 **************************************************************************

                    xk=(   0.40000,   0.10000,   0.10000  )

     Band symmetry, C_s (m)     point group:

     e(  1 -  1) =     -5.08994  eV     1   --> A'             
     e(  2 -  2) =      2.80052  eV     1   --> A'             
     e(  3 -  3) =      4.53038  eV     1   --> A''            
     e(  4 -  4) =      4.53485  eV     1   --> A'             
     e(  5 -  5) =      7.83727  eV     1   --> A'             
     e(  6 -  6) =      9.78351  eV     1   --> A'             
     e(  7 -  7) =     10.49745  eV     1   --> A'             
     e(  8 -  8) =     10.61126  eV     1   --> A''            

 **************************************************************************

 **************************************************************************

                    xk=(   0.36667,   0.09167,   0.09167  )

     Band symmetry, C_s (m)     point group:

     e(  1 -  1) =     -5.20998  eV     1   --> A'             
     e(  2 -  2) =      3.11144  eV     1   --> A'             
     e(  3 -  3) =      4.66245  eV     1   --> A''            
     e(  4 -  4) =      4.71543  eV     1   --> A'             
     e(  5 -  5) =      7.89686  eV     1   --> A'             
     e(  6 -  6) =      9.71395  eV     1   --> A'             
     e(  7 -  7) =     10.38989  eV     1   --> A''            
     e(  8 -  8) =     10.55112  eV     1   --> A'             

 **************************************************************************

 **************************************************************************

                    xk=(   0.33333,   0.08333,   0.08333  )

     Band symmetry, C_s (m)     point group:

     e(  1 -  1) =     -5.32010  eV     1   --> A'             
     e(  2 -  2) =      3.42601  eV     1   --> A'             
     e(  3 -  3) =      4.80026  eV     1   --> A''            
     e(  4 -  4) =      4.89030  eV     1   --> A'             
     e(  5 -  5) =      7.95991  eV     1   --> A'             
     e(  6 -  6) =      9.59430  eV     1   --> A'             
     e(  7 -  7) =     10.16297  eV     1   --> A''            
     e(  8 -  8) =     10.62255  eV     1   --> A'             

 **************************************************************************

 **************************************************************************

                    xk=(   0.30000,   0.07500,   0.07500  )

     Band symmetry, C_s (m)     point group:

     e(  1 -  1) =     -5.42014  eV     1   --> A'             
     e(  2 -  2) =      3.74303  eV     1   --> A'             
     e(  3 -  3) =      4.94266  eV     1   --> A''            
     e(  4 -  4) =      5.05810  eV     1   --> A'             
     e(  5 -  5) =      8.02621  eV     1   --> A'             
     e(  6 -  6) =      9.45491  eV     1   --> A'             
     e(  7 -  7) =      9.93321  eV     1   --> A''            
     e(  8 -  8) =     10.64269  eV     1   --> A'             

 **************************************************************************

 **************************************************************************

                    xk=(   0.26667,   0.06667,   0.06667  )

     Band symmetry, C_s (m)     point group:

     e(  1 -  1) =     -5.50997  eV     1   --> A'             
     e(  2 -  2) =      4.06094  eV     1   --> A'             
     e(  3 -  3) =      5.08828  eV     1   --> A''            
     e(  4 -  4) =      5.21743  eV     1   --> A'             
     e(  5 -  5) =      8.09521  eV     1   --> A'             
     e(  6 -  6) =      9.31065  eV     1   --> A'             
     e(  7 -  7) =      9.70389  eV     1   --> A''            
     e(  8 -  8) =     10.56289  eV     1   --> A'             

 **************************************************************************

 **************************************************************************

                    xk=(   0.23333,   0.05833,   0.05833  )

     Band symmetry, C_s (m)     point group:

     e(  1 -  1) =     -5.58948  eV     1   --> A'             
     e(  2 -  2) =      4.37745  eV     1   --> A'             
     e(  3 -  3) =      5.23522  eV     1   --> A''            
     e(  4 -  4) =      5.36665  eV     1   --> A'             
     e(  5 -  5) =      8.16569  eV     1   --> A'             
     e(  6 -  6) =      9.16853  eV     1   --> A'             
     e(  7 -  7) =      9.47875  eV     1   --> A''            
     e(  8 -  8) =     10.38155  eV     1   --> A'             

 **************************************************************************

 **************************************************************************

                    xk=(   0.20000,   0.05000,   0.05000  )

     Band symmetry, C_s (m)     point group:

     e(  1 -  1) =     -5.65856  eV     1   --> A'             
     e(  2 -  2) =      4.68930  eV     1   --> A'             
     e(  3 -  3) =      5.38083  eV     1   --> A''            
     e(  4 -  4) =      5.50389  eV     1   --> A'             
     e(  5 -  5) =      8.23579  eV     1   --> A'             
     e(  6 -  6) =      9.03246  eV     1   --> A'             
     e(  7 -  7) =      9.26205  eV     1   --> A''            
     e(  8 -  8) =     10.13512  eV     1   --> A'             

 **************************************************************************

 **************************************************************************

                    xk=(   0.16667,   0.04167,   0.04167  )

     Band symmetry, C_s (m)     point group:

     e(  1 -  1) =     -5.71714  eV     1   --> A'             
     e(  2 -  2) =      4.99159  eV     1   --> A'             
     e(  3 -  3) =      5.52152  eV     1   --> A''            
     e(  4 -  4) =      5.62695  eV     1   --> A'             
     e(  5 -  5) =      8.30307  eV     1   --> A'             
     e(  6 -  6) =      8.90484  eV     1   --> A'             
     e(  7 -  7) =      9.05880  eV     1   --> A''            
     e(  8 -  8) =      9.86251  eV     1   --> A'             

 **************************************************************************

 **************************************************************************

                    xk=(   0.13333,   0.03333,   0.03333  )

     Band symmetry, C_s (m)     point group:

     e(  1 -  1) =     -5.76516  eV     1   --> A'             
     e(  2 -  2) =      5.27698  eV     1   --> A'             
     e(  3 -  3) =      5.65257  eV     1   --> A''            
     e(  4 -  4) =      5.73342  eV     1   --> A'             
     e(  5 -  5) =      8.36464  eV     1   --> A'             
     e(  6 -  6) =      8.78720  eV     1   --> A'             
     e(  7 -  7) =      8.87502  eV     1   --> A''            
     e(  8 -  8) =      9.59352  eV     1   --> A'             

 **************************************************************************

 **************************************************************************

                    xk=(   0.10000,   0.02500,   0.02500  )

     Band symmetry, C_s (m)     point group:

     e(  1 -  1) =     -5.80256  eV     1   --> A'             
     e(  2 -  2) =      5.53391  eV     1   --> A'             
     e(  3 -  3) =      5.76767  eV     1   --> A''            
     e(  4 -  4) =      5.82046  eV     1   --> A'             
     e(  5 -  5) =      8.41717  eV     1   --> A'             
     e(  6 -  6) =      8.68044  eV     1   --> A'             
     e(  7 -  7) =      8.71797  eV     1   --> A''            
     e(  8 -  8) =      9.35303  eV     1   --> A'             

 **************************************************************************

 **************************************************************************

                    xk=(   0.06667,   0.01667,   0.01667  )

     Band symmetry, C_s (m)     point group:

     e(  1 -  1) =     -5.82930  eV     1   --> A'             
     e(  2 -  2) =      5.74524  eV     1   --> A'             
     e(  3 -  3) =      5.85896  eV     1   --> A''            
     e(  4 -  4) =      5.88529  eV     1   --> A'             
     e(  5 -  5) =      8.45742  eV     1   --> A'             
     e(  6 -  6) =      8.58731  eV     1   --> A'             
     e(  7 -  7) =      8.59610  eV     1   --> A''            
     e(  8 -  8) =      9.16462  eV     1   --> A'             

 **************************************************************************

 **************************************************************************

                    xk=(   0.03333,   0.00833,   0.00833  )

     Band symmetry, C_s (m)     point group:

     e(  1 -  1) =     -5.84535  eV     1   --> A'             
     e(  2 -  2) =      5.88795  eV     1   --> A'             
     e(  3 -  3) =      5.91831  eV     1   --> A''            
     e(  4 -  4) =      5.92539  eV     1   --> A'             
     e(  5 -  5) =      8.48272  eV     1   --> A'             
     e(  6 -  6) =      8.51802  eV     1   --> A'             
     e(  7 -  7) =      8.51821  eV     1   --> A''            
     e(  8 -  8) =      9.04686  eV     1   --> A'             

 **************************************************************************

 **************************************************************************

                    xk=(   0.00000,   0.00000,   0.00000  )

     point group O_h (m-3m) 
     there are 10 classes
     the character table:

       E     8C3   3C2   6C4   6C2'  i     8S6   3s_h  6S4   6s_d 
A_1g   1.00  1.00  1.00  1.00  1.00  1.00  1.00  1.00  1.00  1.00
A_2g   1.00  1.00  1.00 -1.00 -1.00  1.00  1.00  1.00 -1.00 -1.00
E_g    2.00 -1.00  2.00  0.00  0.00  2.00 -1.00  2.00  0.00  0.00
T_1g   3.00  0.00 -1.00  1.00 -1.00  3.00  0.00 -1.00  1.00 -1.00
T_2g   3.00  0.00 -1.00 -1.00  1.00  3.00  0.00 -1.00 -1.00  1.00
A_1u   1.00  1.00  1.00  1.00  1.00 -1.00 -1.00 -1.00 -1.00 -1.00
A_2u   1.00  1.00  1.00 -1.00 -1.00 -1.00 -1.00 -1.00  1.00  1.00
E_u    2.00 -1.00  2.00  0.00  0.00 -2.00  1.00 -2.00  0.00  0.00
T_1u   3.00  0.00 -1.00  1.00 -1.00 -3.00  0.00  1.00 -1.00  1.00
T_2u   3.00  0.00 -1.00 -1.00  1.00 -3.00  0.00  1.00  1.00 -1.00

     the symmetry operations in each class and the name of the first element:

     E        1
                                                                 
     8C3     17   19   20   18   24   21   22   23
                                                                 
     3C2      2    4    3
                                                                 
     6C4      7    8   15   16   12   11
                                                                 
     6C2'     5    6   14   13   10    9
                                                                 
     i       25
                                                                 
     8S6     41   43   44   42   48   45   46   47
                                                                 
     3s_h    26   28   27
                                                                 
     6S4     31   32   39   40   36   35
                                                                 
     6s_d    29   30   38   37   34   33
                                                                 

     Band symmetry, O_h (m-3m)  point group:

     e(  1 -  1) =     -5.85071  eV     1   --> A_1g G_1   G_1+
     e(  2 -  4) =      5.93897  eV     3   --> T_2g G_25' G_5+
     e(  5 -  7) =      8.49133  eV     3   --> T_1u G_15  G_4-
     e(  8 -  8) =      9.00739  eV     1   --> A_2u G_2'  G_2-

 **************************************************************************
 
     BANDS        :      1.25s CPU      1.31s WALL

 
   This run was terminated on:  18:11:20  13Mar2026            

=------------------------------------------------------------------------------=
   JOB DONE.
=------------------------------------------------------------------------------=
