
     Program PWSCF v.7.1 starts on 13Mar2026 at 18:11:17 

     This program is part of the open-source Quantum ESPRESSO suite
     for quantum simulation of materials; please cite
         "P. Giannozzi et al., J. Phys.:Condens. Matter 21 395502 (2009);
         "P. Giannozzi et al., J. Phys.:Condens. Matter 29 465901 (2017);
         "P. Giannozzi et al., J. Chem. Phys. 152 154105 (2020);
          URL http://www.quantum-espresso.org", 
     in publications or presentations arising from this work. More details at
     http://www.quantum-espresso.org/quote

     Parallel version (MPI), running on     6 processors

     MPI processes distributed on     1 nodes
     11492 MiB available memory on the printing compute node when the environment starts
 
     Waiting for input...
     Reading input from standard input

     Current dimensions of program PWSCF are:
     Max number of different atomic species (ntypx) = 10
     Max number of k-points (npk) =  40000
     Max angular momentum in pseudopotentials (lmaxx) =  4

     Atomic positions and unit cell read from directory:
     ./silicon.save/
 
     file Si.pbe-n-kjpaw_psl.1.0.0.UPF: wavefunction(s)  3S 3P renormalized
 
     R & G space division:  proc/nbgrp/npool/nimage =       6
     Subspace diagonalization in iterative solution of the eigenvalue problem:
     a serial algorithm will be used

 
     Parallelization info
     --------------------
     sticks:   dense  smooth     PW     G-vecs:    dense   smooth      PW
     Min         124      73     23                 2219     1029     177
     Max         125      74     24                 2222     1032     179
     Sum         745     439    139                13323     6183    1067
 
     Using Slab Decomposition
 


     bravais-lattice index     =            2
     lattice parameter (alat)  =      10.3500  a.u.
     unit-cell volume          =     277.1795 (a.u.)^3
     number of atoms/cell      =            2
     number of atomic types    =            1
     number of electrons       =         8.00
     number of Kohn-Sham states=            8
     kinetic-energy cutoff     =      30.0000  Ry
     charge density cutoff     =     200.0000  Ry
     Exchange-correlation= SLA  PW   PBX  PBC
                           (   1   4   3   4   0   0   0)

     celldm(1)=  10.350000  celldm(2)=   0.000000  celldm(3)=   0.000000
     celldm(4)=   0.000000  celldm(5)=   0.000000  celldm(6)=   0.000000

     crystal axes: (cart. coord. in units of alat)
               a(1) = (  -0.500000   0.000000   0.500000 )  
               a(2) = (   0.000000   0.500000   0.500000 )  
               a(3) = (  -0.500000   0.500000   0.000000 )  

     reciprocal axes: (cart. coord. in units 2 pi/alat)
               b(1) = ( -1.000000 -1.000000  1.000000 )  
               b(2) = (  1.000000  1.000000  1.000000 )  
               b(3) = ( -1.000000  1.000000 -1.000000 )  


     PseudoPot. # 1 for Si read from file:
     /home/karan/pseudos/Si.pbe-n-kjpaw_psl.1.0.0.UPF
     MD5 check sum: c39c59da582df4a0d9f10159256ea34e
     Pseudo is Projector augmented-wave + core cor, Zval =  4.0
     Generated using &quot;atomic&quot; code by A. Dal Corso  v.6.3
     Shape of augmentation charge: PSQ
     Using radial grid of 1141 points,  6 beta functions with: 
                l(1) =   0
                l(2) =   0
                l(3) =   1
                l(4) =   1
                l(5) =   2
                l(6) =   2
     Q(r) pseudized with 0 coefficients 


     atomic species   valence    mass     pseudopotential
        Si             4.00    28.08550     Si( 1.00)

     48 Sym. Ops., with inversion, found (24 have fractional translation)



   Cartesian axes

     site n.     atom                  positions (alat units)
         1           Si  tau(   1) = (   0.0000000   0.0000000   0.0000000  )
         2           Si  tau(   2) = (   0.2500000   0.2500000   0.2500000  )

     number of k points=    91
                       cart. coord. in units 2pi/alat
        k(    1) = (   0.5000000   0.5000000   0.5000000), wk =   0.0219780
        k(    2) = (   0.4750000   0.4750000   0.4750000), wk =   0.0219780
        k(    3) = (   0.4500000   0.4500000   0.4500000), wk =   0.0219780
        k(    4) = (   0.4250000   0.4250000   0.4250000), wk =   0.0219780
        k(    5) = (   0.4000000   0.4000000   0.4000000), wk =   0.0219780
        k(    6) = (   0.3750000   0.3750000   0.3750000), wk =   0.0219780
        k(    7) = (   0.3500000   0.3500000   0.3500000), wk =   0.0219780
        k(    8) = (   0.3250000   0.3250000   0.3250000), wk =   0.0219780
        k(    9) = (   0.3000000   0.3000000   0.3000000), wk =   0.0219780
        k(   10) = (   0.2750000   0.2750000   0.2750000), wk =   0.0219780
        k(   11) = (   0.2500000   0.2500000   0.2500000), wk =   0.0219780
        k(   12) = (   0.2250000   0.2250000   0.2250000), wk =   0.0219780
        k(   13) = (   0.2000000   0.2000000   0.2000000), wk =   0.0219780
        k(   14) = (   0.1750000   0.1750000   0.1750000), wk =   0.0219780
        k(   15) = (   0.1500000   0.1500000   0.1500000), wk =   0.0219780
        k(   16) = (   0.1250000   0.1250000   0.1250000), wk =   0.0219780
        k(   17) = (   0.1000000   0.1000000   0.1000000), wk =   0.0219780
        k(   18) = (   0.0750000   0.0750000   0.0750000), wk =   0.0219780
        k(   19) = (   0.0500000   0.0500000   0.0500000), wk =   0.0219780
        k(   20) = (   0.0250000   0.0250000   0.0250000), wk =   0.0219780
        k(   21) = (   0.0000000   0.0000000   0.0000000), wk =   0.0219780
        k(   22) = (   0.0333333   0.0000000   0.0000000), wk =   0.0219780
        k(   23) = (   0.0666667   0.0000000   0.0000000), wk =   0.0219780
        k(   24) = (   0.1000000   0.0000000   0.0000000), wk =   0.0219780
        k(   25) = (   0.1333333   0.0000000   0.0000000), wk =   0.0219780
        k(   26) = (   0.1666667   0.0000000   0.0000000), wk =   0.0219780
        k(   27) = (   0.2000000   0.0000000   0.0000000), wk =   0.0219780
        k(   28) = (   0.2333333   0.0000000   0.0000000), wk =   0.0219780
        k(   29) = (   0.2666667   0.0000000   0.0000000), wk =   0.0219780
        k(   30) = (   0.3000000   0.0000000   0.0000000), wk =   0.0219780
        k(   31) = (   0.3333333   0.0000000   0.0000000), wk =   0.0219780
        k(   32) = (   0.3666667   0.0000000   0.0000000), wk =   0.0219780
        k(   33) = (   0.4000000   0.0000000   0.0000000), wk =   0.0219780
        k(   34) = (   0.4333333   0.0000000   0.0000000), wk =   0.0219780
        k(   35) = (   0.4666667   0.0000000   0.0000000), wk =   0.0219780
        k(   36) = (   0.5000000   0.0000000   0.0000000), wk =   0.0219780
        k(   37) = (   0.5333333   0.0000000   0.0000000), wk =   0.0219780
        k(   38) = (   0.5666667   0.0000000   0.0000000), wk =   0.0219780
        k(   39) = (   0.6000000   0.0000000   0.0000000), wk =   0.0219780
        k(   40) = (   0.6333333   0.0000000   0.0000000), wk =   0.0219780
        k(   41) = (   0.6666667   0.0000000   0.0000000), wk =   0.0219780
        k(   42) = (   0.7000000   0.0000000   0.0000000), wk =   0.0219780
        k(   43) = (   0.7333333   0.0000000   0.0000000), wk =   0.0219780
        k(   44) = (   0.7666667   0.0000000   0.0000000), wk =   0.0219780
        k(   45) = (   0.8000000   0.0000000   0.0000000), wk =   0.0219780
        k(   46) = (   0.8333333   0.0000000   0.0000000), wk =   0.0219780
        k(   47) = (   0.8666667   0.0000000   0.0000000), wk =   0.0219780
        k(   48) = (   0.9000000   0.0000000   0.0000000), wk =   0.0219780
        k(   49) = (   0.9333333   0.0000000   0.0000000), wk =   0.0219780
        k(   50) = (   0.9666667   0.0000000   0.0000000), wk =   0.0219780
        k(   51) = (   1.0000000   0.0000000   0.0000000), wk =   0.0219780
        k(   52) = (   1.0000000   0.0250000   0.0250000), wk =   0.0219780
        k(   53) = (   1.0000000   0.0500000   0.0500000), wk =   0.0219780
        k(   54) = (   1.0000000   0.0750000   0.0750000), wk =   0.0219780
        k(   55) = (   1.0000000   0.1000000   0.1000000), wk =   0.0219780
        k(   56) = (   1.0000000   0.1250000   0.1250000), wk =   0.0219780
        k(   57) = (   1.0000000   0.1500000   0.1500000), wk =   0.0219780
        k(   58) = (   1.0000000   0.1750000   0.1750000), wk =   0.0219780
        k(   59) = (   1.0000000   0.2000000   0.2000000), wk =   0.0219780
        k(   60) = (   1.0000000   0.2250000   0.2250000), wk =   0.0219780
        k(   61) = (   1.0000000   0.2500000   0.2500000), wk =   0.0219780
        k(   62) = (   0.9666667   0.2416667   0.2416667), wk =   0.0219780
        k(   63) = (   0.9333333   0.2333333   0.2333333), wk =   0.0219780
        k(   64) = (   0.9000000   0.2250000   0.2250000), wk =   0.0219780
        k(   65) = (   0.8666667   0.2166667   0.2166667), wk =   0.0219780
        k(   66) = (   0.8333333   0.2083333   0.2083333), wk =   0.0219780
        k(   67) = (   0.8000000   0.2000000   0.2000000), wk =   0.0219780
        k(   68) = (   0.7666667   0.1916667   0.1916667), wk =   0.0219780
        k(   69) = (   0.7333333   0.1833333   0.1833333), wk =   0.0219780
        k(   70) = (   0.7000000   0.1750000   0.1750000), wk =   0.0219780
        k(   71) = (   0.6666667   0.1666667   0.1666667), wk =   0.0219780
        k(   72) = (   0.6333333   0.1583333   0.1583333), wk =   0.0219780
        k(   73) = (   0.6000000   0.1500000   0.1500000), wk =   0.0219780
        k(   74) = (   0.5666667   0.1416667   0.1416667), wk =   0.0219780
        k(   75) = (   0.5333333   0.1333333   0.1333333), wk =   0.0219780
        k(   76) = (   0.5000000   0.1250000   0.1250000), wk =   0.0219780
        k(   77) = (   0.4666667   0.1166667   0.1166667), wk =   0.0219780
        k(   78) = (   0.4333333   0.1083333   0.1083333), wk =   0.0219780
        k(   79) = (   0.4000000   0.1000000   0.1000000), wk =   0.0219780
        k(   80) = (   0.3666667   0.0916667   0.0916667), wk =   0.0219780
        k(   81) = (   0.3333333   0.0833333   0.0833333), wk =   0.0219780
        k(   82) = (   0.3000000   0.0750000   0.0750000), wk =   0.0219780
        k(   83) = (   0.2666667   0.0666667   0.0666667), wk =   0.0219780
        k(   84) = (   0.2333333   0.0583333   0.0583333), wk =   0.0219780
        k(   85) = (   0.2000000   0.0500000   0.0500000), wk =   0.0219780
        k(   86) = (   0.1666667   0.0416667   0.0416667), wk =   0.0219780
        k(   87) = (   0.1333333   0.0333333   0.0333333), wk =   0.0219780
        k(   88) = (   0.1000000   0.0250000   0.0250000), wk =   0.0219780
        k(   89) = (   0.0666667   0.0166667   0.0166667), wk =   0.0219780
        k(   90) = (   0.0333333   0.0083333   0.0083333), wk =   0.0219780
        k(   91) = (   0.0000000   0.0000000   0.0000000), wk =   0.0219780

     Dense  grid:    13323 G-vectors     FFT dimensions: (  36,  36,  36)

     Smooth grid:     6183 G-vectors     FFT dimensions: (  32,  32,  32)

     Estimated max dynamical RAM per process >       8.40 MB

     Estimated total dynamical RAM >      50.42 MB

     Check: negative core charge=   -0.000001

     The potential is recalculated from file :
     ./silicon.save/charge-density

     Starting wfcs are    8 randomized atomic wfcs
     Checking if some PAW data can be deallocated... 

     Band Structure Calculation
     Davidson diagonalization with overlap

     ethr =  1.25E-10,  avg # of iterations = 32.7

     total cpu time spent up to now is        1.5 secs

     End of band structure calculation

          k = 0.5000 0.5000 0.5000 (   778 PWs)   bands (ev):

    -3.5838  -0.9146   4.7620   4.7620   7.3851   9.2906   9.2906  13.6404

          k = 0.4750 0.4750 0.4750 (   775 PWs)   bands (ev):

    -3.6177  -0.8655   4.7665   4.7665   7.3903   9.2954   9.2954  13.6478

          k = 0.4500 0.4500 0.4500 (   769 PWs)   bands (ev):

    -3.7124  -0.7253   4.7798   4.7798   7.4058   9.3096   9.3096  13.6693

          k = 0.4250 0.4250 0.4250 (   769 PWs)   bands (ev):

    -3.8517  -0.5103   4.8019   4.8019   7.4315   9.3319   9.3319  13.7021

          k = 0.4000 0.4000 0.4000 (   769 PWs)   bands (ev):

    -4.0184  -0.2378   4.8329   4.8329   7.4674   9.3604   9.3604  13.7400

          k = 0.3750 0.3750 0.3750 (   763 PWs)   bands (ev):

    -4.1991   0.0784   4.8726   4.8726   7.5133   9.3922   9.3922  13.7694

          k = 0.3500 0.3500 0.3500 (   769 PWs)   bands (ev):

    -4.3841   0.4285   4.9209   4.9209   7.5688   9.4232   9.4232  13.7591

          k = 0.3250 0.3250 0.3250 (   769 PWs)   bands (ev):

    -4.5673   0.8056   4.9777   4.9777   7.6336   9.4483   9.4483  13.6514

          k = 0.3000 0.3000 0.3000 (   769 PWs)   bands (ev):

    -4.7443   1.2048   5.0426   5.0426   7.7073   9.4611   9.4611  13.4045

          k = 0.2750 0.2750 0.2750 (   775 PWs)   bands (ev):

    -4.9123   1.6226   5.1153   5.1153   7.7890   9.4551   9.4551  13.0525

          k = 0.2500 0.2500 0.2500 (   778 PWs)   bands (ev):

    -5.0692   2.0559   5.1951   5.1951   7.8778   9.4241   9.4241  12.6471

          k = 0.2250 0.2250 0.2250 (   778 PWs)   bands (ev):

    -5.2138   2.5018   5.2812   5.2812   7.9725   9.3648   9.3648  12.2163

          k = 0.2000 0.2000 0.2000 (   776 PWs)   bands (ev):

    -5.3449   2.9577   5.3723   5.3723   8.0711   9.2773   9.2773  11.7726

          k = 0.1750 0.1750 0.1750 (   779 PWs)   bands (ev):

    -5.4618   3.4201   5.4670   5.4670   8.1714   9.1660   9.1660  11.3225

          k = 0.1500 0.1500 0.1500 (   779 PWs)   bands (ev):

    -5.5640   3.8849   5.5629   5.5629   8.2703   9.0389   9.0389  10.8711

          k = 0.1250 0.1250 0.1250 (   773 PWs)   bands (ev):

    -5.6511   4.3461   5.6571   5.6571   8.3633   8.9055   8.9055  10.4247

          k = 0.1000 0.1000 0.1000 (   770 PWs)   bands (ev):

    -5.7227   4.7944   5.7455   5.7455   8.4446   8.7761   8.7761   9.9938

          k = 0.0750 0.0750 0.0750 (   752 PWs)   bands (ev):

    -5.7786   5.2143   5.8235   5.8235   8.5052   8.6612   8.6612   9.5978

          k = 0.0500 0.0500 0.0500 (   749 PWs)   bands (ev):

    -5.8186   5.5787   5.8852   5.8852   8.5314   8.5702   8.5702   9.2725

          k = 0.0250 0.0250 0.0250 (   749 PWs)   bands (ev):

    -5.8427   5.8406   5.9251   5.9251   8.5116   8.5116   8.5134   9.0696

          k = 0.0000 0.0000 0.0000 (   749 PWs)   bands (ev):

    -5.8507   5.9390   5.9390   5.9390   8.4913   8.4913   8.4913   9.0074

          k = 0.0333 0.0000 0.0000 (   749 PWs)   bands (ev):

    -5.8459   5.9037   5.9186   5.9186   8.4795   8.5176   8.5176   9.0420

          k = 0.0667 0.0000 0.0000 (   749 PWs)   bands (ev):

    -5.8317   5.8026   5.8598   5.8598   8.4446   8.5940   8.5940   9.1405

          k = 0.1000 0.0000 0.0000 (   749 PWs)   bands (ev):

    -5.8079   5.6471   5.7690   5.7690   8.3885   8.7141   8.7141   9.2898

          k = 0.1333 0.0000 0.0000 (   757 PWs)   bands (ev):

    -5.7746   5.4503   5.6539   5.6539   8.3138   8.8700   8.8700   9.4733

          k = 0.1667 0.0000 0.0000 (   773 PWs)   bands (ev):

    -5.7319   5.2237   5.5219   5.5219   8.2238   9.0543   9.0543   9.6734

          k = 0.2000 0.0000 0.0000 (   769 PWs)   bands (ev):

    -5.6797   4.9762   5.3793   5.3793   8.1217   9.2609   9.2609   9.8710

          k = 0.2333 0.0000 0.0000 (   769 PWs)   bands (ev):

    -5.6181   4.7140   5.2305   5.2305   8.0109   9.4849   9.4849  10.0425

          k = 0.2667 0.0000 0.0000 (   769 PWs)   bands (ev):

    -5.5471   4.4414   5.0790   5.0790   7.8943   9.7228   9.7228  10.1583

          k = 0.3000 0.0000 0.0000 (   777 PWs)   bands (ev):

    -5.4668   4.1615   4.9274   4.9274   7.7744   9.9718   9.9718  10.1891

          k = 0.3333 0.0000 0.0000 (   777 PWs)   bands (ev):

    -5.3773   3.8764   4.7777   4.7777   7.6536  10.1238  10.2299  10.2299

          k = 0.3667 0.0000 0.0000 (   785 PWs)   bands (ev):

    -5.2785   3.5876   4.6311   4.6311   7.5338   9.9787  10.4956  10.4956

          k = 0.4000 0.0000 0.0000 (   785 PWs)   bands (ev):

    -5.1705   3.2963   4.4889   4.4889   7.4167   9.7815  10.7677  10.7677

          k = 0.4333 0.0000 0.0000 (   785 PWs)   bands (ev):

    -5.0535   3.0032   4.3519   4.3519   7.3036   9.5559  11.0451  11.0451

          k = 0.4667 0.0000 0.0000 (   769 PWs)   bands (ev):

    -4.9276   2.7090   4.2207   4.2207   7.1957   9.3173  11.3274  11.3274

          k = 0.5000 0.0000 0.0000 (   769 PWs)   bands (ev):

    -4.7927   2.4142   4.0958   4.0958   7.0939   9.0755  11.6136  11.6136

          k = 0.5333 0.0000 0.0000 (   769 PWs)   bands (ev):

    -4.6490   2.1193   3.9776   3.9776   6.9992   8.8365  11.9032  11.9032

          k = 0.5667 0.0000 0.0000 (   777 PWs)   bands (ev):

    -4.4966   1.8247   3.8666   3.8666   6.9121   8.6040  12.1961  12.1961

          k = 0.6000 0.0000 0.0000 (   781 PWs)   bands (ev):

    -4.3357   1.5307   3.7629   3.7629   6.8335   8.3807  12.4919  12.4919

          k = 0.6333 0.0000 0.0000 (   769 PWs)   bands (ev):

    -4.1664   1.2379   3.6669   3.6669   6.7638   8.1683  12.7905  12.7905

          k = 0.6667 0.0000 0.0000 (   769 PWs)   bands (ev):

    -3.9888   0.9465   3.5788   3.5788   6.7035   7.9679  13.0913  13.0913

          k = 0.7000 0.0000 0.0000 (   769 PWs)   bands (ev):

    -3.8030   0.6569   3.4986   3.4986   6.6530   7.7802  13.3943  13.3943

          k = 0.7333 0.0000 0.0000 (   769 PWs)   bands (ev):

    -3.6093   0.3697   3.4265   3.4265   6.6128   7.6057  13.6991  13.6991

          k = 0.7667 0.0000 0.0000 (   765 PWs)   bands (ev):

    -3.4079   0.0851   3.3627   3.3627   6.5832   7.4448  14.0055  14.0055

          k = 0.8000 0.0000 0.0000 (   761 PWs)   bands (ev):

    -3.1989  -0.1965   3.3072   3.3072   6.5646   7.2976  14.3127  14.3127

          k = 0.8333 0.0000 0.0000 (   769 PWs)   bands (ev):

    -2.9825  -0.4745   3.2601   3.2601   6.5572   7.1641  14.6195  14.6195

          k = 0.8667 0.0000 0.0000 (   769 PWs)   bands (ev):

    -2.7591  -0.7487   3.2215   3.2215   6.5614   7.0443  14.9238  14.9238

          k = 0.9000 0.0000 0.0000 (   769 PWs)   bands (ev):

    -2.5287  -1.0187   3.1914   3.1914   6.5775   6.9382  15.2206  15.2206

          k = 0.9333 0.0000 0.0000 (   769 PWs)   bands (ev):

    -2.2918  -1.2840   3.1699   3.1699   6.6058   6.8455  15.4986  15.4986

          k = 0.9667 0.0000 0.0000 (   769 PWs)   bands (ev):

    -2.0485  -1.5443   3.1570   3.1570   6.6465   6.7661  15.7264  15.7264

          k = 1.0000 0.0000 0.0000 (   774 PWs)   bands (ev):

    -1.7993  -1.7993   3.1526   3.1526   6.6998   6.6998  15.8253  15.8253

          k = 1.0000 0.0250 0.0250 (   768 PWs)   bands (ev):

    -1.8017  -1.7934   3.1168   3.1569   6.7048   6.7537  15.7689  15.7928

          k = 1.0000 0.0500 0.0500 (   766 PWs)   bands (ev):

    -1.8091  -1.7760   3.0163   3.1698   6.7196   6.9085  15.6139  15.6996

          k = 1.0000 0.0750 0.0750 (   768 PWs)   bands (ev):

    -1.8223  -1.7469   2.8679   3.1912   6.7442   7.1481  15.3896  15.5564

          k = 1.0000 0.1000 0.1000 (   768 PWs)   bands (ev):

    -1.8425  -1.7061   2.6908   3.2210   6.7785   7.4543  15.1228  15.3758

          k = 1.0000 0.1250 0.1250 (   768 PWs)   bands (ev):

    -1.8714  -1.6538   2.5022   3.2592   6.8224   7.8116  14.8320  15.1689

          k = 1.0000 0.1500 0.1500 (   764 PWs)   bands (ev):

    -1.9109  -1.5898   2.3154   3.3057   6.8758   8.2084  14.5285  14.9445

          k = 1.0000 0.1750 0.1750 (   764 PWs)   bands (ev):

    -1.9631  -1.5143   2.1407   3.3602   6.9385   8.6360  14.2194  14.7092

          k = 1.0000 0.2000 0.2000 (   764 PWs)   bands (ev):

    -2.0300  -1.4272   1.9857   3.4225   7.0103   9.0883  13.9094  14.4679

          k = 1.0000 0.2250 0.2250 (   756 PWs)   bands (ev):

    -2.1135  -1.3286   1.8561   3.4924   7.0908   9.5609  13.6013  14.1599

          k = 1.0000 0.2500 0.2500 (   762 PWs)   bands (ev):

    -2.2143  -1.2185   1.7557   3.5697   7.1798  10.0495  13.2972  13.8367

          k = 0.9667 0.2417 0.2417 (   756 PWs)   bands (ev):

    -2.2174  -1.2204   1.7990   3.5471   7.1548   9.8908  13.3271  13.6794

          k = 0.9333 0.2333 0.2333 (   762 PWs)   bands (ev):

    -2.2998  -1.1461   1.8693   3.5332   7.1420   9.7454  13.2528  13.4599

          k = 0.9000 0.2250 0.2250 (   764 PWs)   bands (ev):

    -2.4407  -1.0127   1.9628   3.5282   7.1409   9.6142  13.1296  13.2389

          k = 0.8667 0.2167 0.2167 (   763 PWs)   bands (ev):

    -2.6151  -0.8418   2.0757   3.5321   7.1513   9.4981  12.9869  13.0187

          k = 0.8333 0.2083 0.2083 (   765 PWs)   bands (ev):

    -2.8070  -0.6472   2.2053   3.5452   7.1724   9.3982  12.7999  12.8368

          k = 0.8000 0.2000 0.2000 (   768 PWs)   bands (ev):

    -3.0070  -0.4358   2.3489   3.5675   7.2034   9.3156  12.5830  12.6842

          k = 0.7667 0.1917 0.1917 (   769 PWs)   bands (ev):

    -3.2097  -0.2116   2.5042   3.5989   7.2430   9.2519  12.3680  12.5313

          k = 0.7333 0.1833 0.1833 (   768 PWs)   bands (ev):

    -3.4117   0.0232   2.6694   3.6395   7.2897   9.2086  12.1553  12.3784

          k = 0.7000 0.1750 0.1750 (   770 PWs)   bands (ev):

    -3.6106   0.2675   2.8427   3.6893   7.3416   9.1876  11.9449  12.2251

          k = 0.6667 0.1667 0.1667 (   770 PWs)   bands (ev):

    -3.8049   0.5204   3.0225   3.7482   7.3969   9.1906  11.7374  12.0703

          k = 0.6333 0.1583 0.1583 (   769 PWs)   bands (ev):

    -3.9933   0.7814   3.2073   3.8162   7.4537   9.2189  11.5330  11.9129

          k = 0.6000 0.1500 0.1500 (   767 PWs)   bands (ev):

    -4.1749   1.0499   3.3958   3.8931   7.5102   9.2730  11.3327  11.7511

          k = 0.5667 0.1417 0.1417 (   769 PWs)   bands (ev):

    -4.3490   1.3257   3.5866   3.9788   7.5657   9.3519  11.1379  11.5833

          k = 0.5333 0.1333 0.1333 (   775 PWs)   bands (ev):

    -4.5149   1.6083   3.7786   4.0731   7.6198   9.4522  10.9511  11.4078

          k = 0.5000 0.1250 0.1250 (   777 PWs)   bands (ev):

    -4.6724   1.8976   3.9705   4.1758   7.6730   9.5671  10.7769  11.2233

          k = 0.4667 0.1167 0.1167 (   774 PWs)   bands (ev):

    -4.8209   2.1930   4.1613   4.2865   7.7263   9.6822  10.6260  11.0290

          k = 0.4333 0.1083 0.1083 (   776 PWs)   bands (ev):

    -4.9602   2.4941   4.3498   4.4048   7.7807   9.7687  10.5216  10.8248

          k = 0.4000 0.1000 0.1000 (   777 PWs)   bands (ev):

    -5.0899   2.8005   4.5304   4.5349   7.8373   9.7835  10.4975  10.6113

          k = 0.3667 0.0917 0.0917 (   781 PWs)   bands (ev):

    -5.2100   3.1114   4.6625   4.7154   7.8969   9.7140  10.3899  10.5511

          k = 0.3333 0.0833 0.0833 (   777 PWs)   bands (ev):

    -5.3201   3.4260   4.8003   4.8903   7.9599   9.5943  10.1630  10.6226

          k = 0.3000 0.0750 0.0750 (   781 PWs)   bands (ev):

    -5.4201   3.7430   4.9427   5.0581   8.0262   9.4549   9.9332  10.6427

          k = 0.2667 0.0667 0.0667 (   777 PWs)   bands (ev):

    -5.5100   4.0609   5.0883   5.2174   8.0952   9.3107   9.7039  10.5629

          k = 0.2333 0.0583 0.0583 (   771 PWs)   bands (ev):

    -5.5895   4.3775   5.2352   5.3666   8.1657   9.1685   9.4788  10.3815

          k = 0.2000 0.0500 0.0500 (   767 PWs)   bands (ev):

    -5.6586   4.6893   5.3808   5.5039   8.2358   9.0325   9.2621  10.1351

          k = 0.1667 0.0417 0.0417 (   765 PWs)   bands (ev):

    -5.7171   4.9916   5.5215   5.6270   8.3031   8.9048   9.0588   9.8625

          k = 0.1333 0.0333 0.0333 (   755 PWs)   bands (ev):

    -5.7652   5.2770   5.6526   5.7334   8.3646   8.7872   8.8750   9.5935

          k = 0.1000 0.0250 0.0250 (   751 PWs)   bands (ev):

    -5.8026   5.5339   5.7677   5.8205   8.4172   8.6804   8.7180   9.3530

          k = 0.0667 0.0167 0.0167 (   749 PWs)   bands (ev):

    -5.8293   5.7452   5.8590   5.8853   8.4574   8.5873   8.5961   9.1646

          k = 0.0333 0.0083 0.0083 (   749 PWs)   bands (ev):

    -5.8454   5.8879   5.9183   5.9254   8.4827   8.5180   8.5182   9.0469

          k = 0.0000 0.0000 0.0000 (   749 PWs)   bands (ev):

    -5.8507   5.9390   5.9390   5.9390   8.4913   8.4913   8.4913   9.0074

     Writing all to output data dir ./silicon.save/
 
     init_run     :      0.08s CPU      0.09s WALL (       1 calls)
     electrons    :      1.17s CPU      1.23s WALL (       1 calls)

     Called by init_run:
     wfcinit      :      0.00s CPU      0.00s WALL (       1 calls)
     potinit      :      0.05s CPU      0.06s WALL (       1 calls)
     hinit0       :      0.02s CPU      0.02s WALL (       1 calls)

     Called by electrons:
     c_bands      :      1.17s CPU      1.23s WALL (       1 calls)
     v_of_rho     :      0.00s CPU      0.00s WALL (       1 calls)
     newd         :      0.00s CPU      0.01s WALL (       1 calls)
     PAW_pot      :      0.05s CPU      0.05s WALL (       1 calls)

     Called by c_bands:
     init_us_2    :      0.00s CPU      0.00s WALL (      91 calls)
     init_us_2:cp :      0.00s CPU      0.00s WALL (      91 calls)
     cegterg      :      1.08s CPU      1.13s WALL (     200 calls)

     Called by *egterg:
     cdiaghg      :      0.15s CPU      0.16s WALL (    3063 calls)
     h_psi        :      0.80s CPU      0.84s WALL (    3263 calls)
     s_psi        :      0.02s CPU      0.02s WALL (    3263 calls)
     g_psi        :      0.00s CPU      0.00s WALL (    2972 calls)

     Called by h_psi:
     h_psi:calbec :      0.04s CPU      0.05s WALL (    3263 calls)
     vloc_psi     :      0.72s CPU      0.76s WALL (    3263 calls)
     add_vuspsi   :      0.02s CPU      0.03s WALL (    3263 calls)

     General routines
     calbec       :      0.04s CPU      0.04s WALL (    3263 calls)
     fft          :      0.00s CPU      0.00s WALL (      13 calls)
     ffts         :      0.00s CPU      0.00s WALL (       1 calls)
     fftw         :      0.62s CPU      0.65s WALL (   36182 calls)
     interpolate  :      0.00s CPU      0.00s WALL (       1 calls)
     davcio       :      0.00s CPU      0.00s WALL (     182 calls)
 
     Parallel routines
 
     PWSCF        :      1.42s CPU      1.50s WALL

 
   This run was terminated on:  18:11:18  13Mar2026            

=------------------------------------------------------------------------------=
   JOB DONE.
=------------------------------------------------------------------------------=
