
     Program DOS v.7.1 starts on 13Mar2026 at 18:11:23 

     This program is part of the open-source Quantum ESPRESSO suite
     for quantum simulation of materials; please cite
         "P. Giannozzi et al., J. Phys.:Condens. Matter 21 395502 (2009);
         "P. Giannozzi et al., J. Phys.:Condens. Matter 29 465901 (2017);
         "P. Giannozzi et al., J. Chem. Phys. 152 154105 (2020);
          URL http://www.quantum-espresso.org", 
     in publications or presentations arising from this work. More details at
     http://www.quantum-espresso.org/quote

     Parallel version (MPI), running on     6 processors

     MPI processes distributed on     1 nodes
     R & G space division:  proc/nbgrp/npool/nimage =       6
     11453 MiB available memory on the printing compute node when the environment starts
 

     Reading xml data from directory:

     ./silicon.save/
     file Si.pbe-n-kjpaw_psl.1.0.0.UPF: wavefunction(s)  3S 3P renormalized

     IMPORTANT: XC functional enforced from input :
     Exchange-correlation= PBE
                           (   1   4   3   4   0   0   0)
     Any further DFT definition will be discarded
     Please, verify this is what you really want

 
     Parallelization info
     --------------------
     sticks:   dense  smooth     PW     G-vecs:    dense   smooth      PW
     Min          73      73     25                 1029     1029     206
     Max          74      74     26                 1032     1032     209
     Sum         439     439    151                 6183     6183    1243
 
     Using Slab Decomposition
 

     Check: negative core charge=   -0.000003

     Gaussian broadening (default values): ngauss,degauss=   0    0.000735

 
     DOS          :      0.20s CPU      0.22s WALL

 
   This run was terminated on:  18:11:23  13Mar2026            

=------------------------------------------------------------------------------=
   JOB DONE.
=------------------------------------------------------------------------------=
