
     Program PROJWFC v.7.1 starts on 13Mar2026 at 18:11:24 

     This program is part of the open-source Quantum ESPRESSO suite
     for quantum simulation of materials; please cite
         "P. Giannozzi et al., J. Phys.:Condens. Matter 21 395502 (2009);
         "P. Giannozzi et al., J. Phys.:Condens. Matter 29 465901 (2017);
         "P. Giannozzi et al., J. Chem. Phys. 152 154105 (2020);
          URL http://www.quantum-espresso.org", 
     in publications or presentations arising from this work. More details at
     http://www.quantum-espresso.org/quote

     Parallel version (MPI), running on     6 processors

     MPI processes distributed on     1 nodes
     R & G space division:  proc/nbgrp/npool/nimage =       6
     11445 MiB available memory on the printing compute node when the environment starts
 

     Reading xml data from directory:

     ./silicon.save/
     file Si.pbe-n-kjpaw_psl.1.0.0.UPF: wavefunction(s)  3S 3P renormalized

     IMPORTANT: XC functional enforced from input :
     Exchange-correlation= PBE
                           (   1   4   3   4   0   0   0)
     Any further DFT definition will be discarded
     Please, verify this is what you really want

 
     Parallelization info
     --------------------
     sticks:   dense  smooth     PW     G-vecs:    dense   smooth      PW
     Min          73      73     25                 1029     1029     206
     Max          74      74     26                 1032     1032     209
     Sum         439     439    151                 6183     6183    1243
 
     Using Slab Decomposition
 

     Check: negative core charge=   -0.000003

     Gaussian broadening (default values): ngauss,degauss=   0    0.000735


     Calling projwave .... 
     Subspace diagonalization in iterative solution of the eigenvalue problem:
     one sub-group per band group will be used
     scalapack distributed-memory algorithm (size of sub-group:  2*  2 procs)

     linear algebra parallelized on   4 procs
 
  Problem Sizes 
  natomwfc =            8
  nx       =            4
  nbnd     =            4
  nkstot   =          182
  npwx     =          133
  nkb      =           36
 

     Atomic states used for projection
     (read from pseudopotential files):

     state #   1: atom   1 (Si ), wfc  1 (l=0 m= 1)
     state #   2: atom   1 (Si ), wfc  2 (l=1 m= 1)
     state #   3: atom   1 (Si ), wfc  2 (l=1 m= 2)
     state #   4: atom   1 (Si ), wfc  2 (l=1 m= 3)
     state #   5: atom   2 (Si ), wfc  1 (l=0 m= 1)
     state #   6: atom   2 (Si ), wfc  2 (l=1 m= 1)
     state #   7: atom   2 (Si ), wfc  2 (l=1 m= 2)
     state #   8: atom   2 (Si ), wfc  2 (l=1 m= 3)

 k =  -0.0416666667  0.0416666667  0.0416666667
==== e(   1) =    -5.82797 eV ==== 
     psi = 0.492*[#   1]+0.492*[#   5]+0.002*[#   2]+0.002*[#   3]+0.002*[#   4]
          +0.002*[#   6]+0.002*[#   7]+0.002*[#   8]
    |psi|^2 = 0.996
==== e(   2) =     5.68078 eV ==== 
     psi = 0.153*[#   2]+0.153*[#   3]+0.153*[#   4]+0.153*[#   6]+0.153*[#   7]
          +0.153*[#   8]+0.024*[#   1]+0.024*[#   5]
    |psi|^2 = 0.966
==== e(   3) =     5.90167 eV ==== 
     psi = 0.161*[#   2]+0.161*[#   3]+0.161*[#   4]+0.161*[#   6]+0.161*[#   7]
          +0.161*[#   8]
    |psi|^2 = 0.963
==== e(   4) =     5.90167 eV ==== 
     psi = 0.161*[#   2]+0.161*[#   3]+0.161*[#   4]+0.161*[#   6]+0.161*[#   7]
          +0.161*[#   8]
    |psi|^2 = 0.963

 k =  -0.1250000000  0.1250000000 -0.0416666667
==== e(   1) =    -5.70948 eV ==== 
     psi = 0.463*[#   1]+0.463*[#   5]+0.012*[#   2]+0.012*[#   3]+0.012*[#   4]
          +0.012*[#   6]+0.012*[#   7]+0.012*[#   8]
    |psi|^2 = 0.996
==== e(   2) =     4.79333 eV ==== 
     psi = 0.135*[#   2]+0.135*[#   3]+0.135*[#   4]+0.135*[#   6]+0.135*[#   7]
          +0.135*[#   8]+0.082*[#   1]+0.082*[#   5]
    |psi|^2 = 0.975
==== e(   3) =     5.49070 eV ==== 
     psi = 0.160*[#   2]+0.160*[#   3]+0.160*[#   4]+0.160*[#   6]+0.160*[#   7]
          +0.160*[#   8]+0.005*[#   1]+0.005*[#   5]
    |psi|^2 = 0.972
==== e(   4) =     5.84932 eV ==== 
     psi = 0.161*[#   2]+0.161*[#   3]+0.161*[#   4]+0.161*[#   6]+0.161*[#   7]
          +0.161*[#   8]
    |psi|^2 = 0.966

 k =  -0.2083333333  0.2083333333 -0.1250000000
==== e(   1) =    -5.41706 eV ==== 
     psi = 0.417*[#   1]+0.417*[#   5]+0.027*[#   2]+0.027*[#   3]+0.027*[#   4]
          +0.027*[#   6]+0.027*[#   7]+0.027*[#   8]
    |psi|^2 = 0.996
==== e(   2) =     3.30740 eV ==== 
     psi = 0.126*[#   1]+0.126*[#   5]+0.122*[#   2]+0.122*[#   3]+0.122*[#   4]
          +0.122*[#   6]+0.122*[#   7]+0.122*[#   8]
    |psi|^2 = 0.983
==== e(   3) =     5.12760 eV ==== 
     psi = 0.159*[#   2]+0.159*[#   3]+0.159*[#   4]+0.159*[#   6]+0.159*[#   7]
          +0.159*[#   8]+0.011*[#   1]+0.011*[#   5]
    |psi|^2 = 0.978
==== e(   4) =     5.58505 eV ==== 
     psi = 0.162*[#   2]+0.162*[#   3]+0.162*[#   4]+0.162*[#   6]+0.162*[#   7]
          +0.162*[#   8]
    |psi|^2 = 0.975

 k =  -0.2916666667  0.2916666667 -0.2083333333
==== e(   1) =    -4.96362 eV ==== 
     psi = 0.380*[#   1]+0.380*[#   5]+0.039*[#   2]+0.039*[#   3]+0.039*[#   4]
          +0.039*[#   6]+0.039*[#   7]+0.039*[#   8]
    |psi|^2 = 0.996
==== e(   2) =     1.81634 eV ==== 
     psi = 0.150*[#   1]+0.150*[#   5]+0.114*[#   2]+0.114*[#   3]+0.114*[#   4]
          +0.114*[#   6]+0.114*[#   7]+0.114*[#   8]
    |psi|^2 = 0.987
==== e(   3) =     4.83586 eV ==== 
     psi = 0.159*[#   2]+0.159*[#   3]+0.159*[#   4]+0.159*[#   6]+0.159*[#   7]
          +0.159*[#   8]+0.014*[#   1]+0.014*[#   5]
    |psi|^2 = 0.983
==== e(   4) =     5.27421 eV ==== 
     psi = 0.164*[#   2]+0.164*[#   3]+0.164*[#   4]+0.164*[#   6]+0.164*[#   7]
          +0.164*[#   8]
    |psi|^2 = 0.981

 k =  -0.3750000000  0.3750000000 -0.2916666667
==== e(   1) =    -4.38491 eV ==== 
     psi = 0.364*[#   1]+0.364*[#   5]+0.045*[#   2]+0.045*[#   3]+0.045*[#   4]
          +0.045*[#   6]+0.045*[#   7]+0.045*[#   8]
    |psi|^2 = 0.996
==== e(   2) =     0.47733 eV ==== 
     psi = 0.156*[#   1]+0.156*[#   5]+0.113*[#   2]+0.113*[#   3]+0.113*[#   4]
          +0.113*[#   6]+0.113*[#   7]+0.113*[#   8]
    |psi|^2 = 0.988
==== e(   3) =     4.64503 eV ==== 
     psi = 0.159*[#   2]+0.159*[#   3]+0.159*[#   4]+0.159*[#   6]+0.159*[#   7]
          +0.159*[#   8]+0.016*[#   1]+0.016*[#   5]
    |psi|^2 = 0.986
==== e(   4) =     5.00585 eV ==== 
     psi = 0.164*[#   2]+0.164*[#   3]+0.164*[#   4]+0.164*[#   6]+0.164*[#   7]
          +0.164*[#   8]
    |psi|^2 = 0.985

 k =  -0.4583333333  0.4583333333 -0.3750000000
==== e(   1) =    -3.79782 eV ==== 
     psi = 0.373*[#   1]+0.373*[#   5]+0.042*[#   2]+0.042*[#   3]+0.042*[#   4]
          +0.042*[#   6]+0.042*[#   7]+0.042*[#   8]
    |psi|^2 = 0.996
==== e(   2) =    -0.55350 eV ==== 
     psi = 0.141*[#   1]+0.141*[#   5]+0.118*[#   2]+0.118*[#   3]+0.118*[#   4]
          +0.118*[#   6]+0.118*[#   7]+0.118*[#   8]
    |psi|^2 = 0.987
==== e(   3) =     4.56414 eV ==== 
     psi = 0.159*[#   2]+0.159*[#   3]+0.159*[#   4]+0.159*[#   6]+0.159*[#   7]
          +0.159*[#   8]+0.018*[#   1]+0.018*[#   5]
    |psi|^2 = 0.987
==== e(   4) =     4.81494 eV ==== 
     psi = 0.165*[#   2]+0.165*[#   3]+0.165*[#   4]+0.165*[#   6]+0.165*[#   7]
          +0.165*[#   8]
    |psi|^2 = 0.987

 k =   0.4583333333 -0.4583333333  0.5416666667
==== e(   1) =    -3.57411 eV ==== 
     psi = 0.386*[#   1]+0.386*[#   5]+0.038*[#   2]+0.038*[#   3]+0.038*[#   4]
          +0.038*[#   6]+0.038*[#   7]+0.038*[#   8]
    |psi|^2 = 0.997
==== e(   2) =    -0.88914 eV ==== 
     psi = 0.127*[#   1]+0.127*[#   5]+0.122*[#   2]+0.122*[#   3]+0.122*[#   4]
          +0.122*[#   6]+0.122*[#   7]+0.122*[#   8]
    |psi|^2 = 0.987
==== e(   3) =     4.59156 eV ==== 
     psi = 0.158*[#   2]+0.158*[#   3]+0.158*[#   4]+0.158*[#   6]+0.158*[#   7]
          +0.158*[#   8]+0.019*[#   1]+0.019*[#   5]
    |psi|^2 = 0.988
==== e(   4) =     4.71694 eV ==== 
     psi = 0.165*[#   2]+0.165*[#   3]+0.165*[#   4]+0.165*[#   6]+0.165*[#   7]
          +0.165*[#   8]
    |psi|^2 = 0.988

 k =   0.3750000000 -0.3750000000  0.4583333333
==== e(   1) =    -3.97897 eV ==== 
     psi = 0.367*[#   1]+0.367*[#   5]+0.044*[#   2]+0.044*[#   3]+0.044*[#   4]
          +0.044*[#   6]+0.044*[#   7]+0.044*[#   8]
    |psi|^2 = 0.996
==== e(   2) =    -0.26104 eV ==== 
     psi = 0.148*[#   1]+0.148*[#   5]+0.115*[#   2]+0.115*[#   3]+0.115*[#   4]
          +0.115*[#   6]+0.115*[#   7]+0.115*[#   8]
    |psi|^2 = 0.988
==== e(   3) =     4.72085 eV ==== 
     psi = 0.158*[#   2]+0.158*[#   3]+0.158*[#   4]+0.158*[#   6]+0.158*[#   7]
          +0.158*[#   8]+0.019*[#   1]+0.019*[#   5]
    |psi|^2 = 0.987
==== e(   4) =     4.72099 eV ==== 
     psi = 0.164*[#   2]+0.164*[#   3]+0.164*[#   4]+0.164*[#   6]+0.164*[#   7]
          +0.164*[#   8]
    |psi|^2 = 0.987

 k =   0.2916666667 -0.2916666667  0.3750000000
==== e(   1) =    -4.58735 eV ==== 
     psi = 0.366*[#   1]+0.366*[#   5]+0.044*[#   2]+0.044*[#   3]+0.044*[#   4]
          +0.044*[#   6]+0.044*[#   7]+0.044*[#   8]
    |psi|^2 = 0.996
==== e(   2) =     0.89902 eV ==== 
     psi = 0.156*[#   1]+0.156*[#   5]+0.113*[#   2]+0.113*[#   3]+0.113*[#   4]
          +0.113*[#   6]+0.113*[#   7]+0.113*[#   8]
    |psi|^2 = 0.988
==== e(   3) =     4.83218 eV ==== 
     psi = 0.164*[#   2]+0.164*[#   3]+0.164*[#   4]+0.164*[#   6]+0.164*[#   7]
          +0.164*[#   8]
    |psi|^2 = 0.985
==== e(   4) =     4.94209 eV ==== 
     psi = 0.158*[#   2]+0.158*[#   3]+0.158*[#   4]+0.158*[#   6]+0.158*[#   7]
          +0.158*[#   8]+0.018*[#   1]+0.018*[#   5]
    |psi|^2 = 0.984

 k =   0.2083333333 -0.2083333333  0.2916666667
==== e(   1) =    -5.13111 eV ==== 
     psi = 0.390*[#   1]+0.390*[#   5]+0.036*[#   2]+0.036*[#   3]+0.036*[#   4]
          +0.036*[#   6]+0.036*[#   7]+0.036*[#   8]
    |psi|^2 = 0.996
==== e(   2) =     2.30234 eV ==== 
     psi = 0.144*[#   1]+0.144*[#   5]+0.116*[#   2]+0.116*[#   3]+0.116*[#   4]
          +0.116*[#   6]+0.116*[#   7]+0.116*[#   8]
    |psi|^2 = 0.986
==== e(   3) =     5.04850 eV ==== 
     psi = 0.164*[#   2]+0.164*[#   3]+0.164*[#   4]+0.164*[#   6]+0.164*[#   7]
          +0.164*[#   8]
    |psi|^2 = 0.981
==== e(   4) =     5.23666 eV ==== 
     psi = 0.158*[#   2]+0.158*[#   3]+0.158*[#   4]+0.158*[#   6]+0.158*[#   7]
          +0.158*[#   8]+0.016*[#   1]+0.016*[#   5]
    |psi|^2 = 0.980

 k =   0.1250000000 -0.1250000000  0.2083333333
==== e(   1) =    -5.53324 eV ==== 
     psi = 0.432*[#   1]+0.432*[#   5]+0.022*[#   2]+0.022*[#   3]+0.022*[#   4]
          +0.022*[#   6]+0.022*[#   7]+0.022*[#   8]
    |psi|^2 = 0.996
==== e(   2) =     3.81992 eV ==== 
     psi = 0.126*[#   2]+0.126*[#   3]+0.126*[#   4]+0.126*[#   6]+0.126*[#   7]
          +0.126*[#   8]+0.113*[#   1]+0.113*[#   5]
    |psi|^2 = 0.981
==== e(   3) =     5.35139 eV ==== 
     psi = 0.163*[#   2]+0.163*[#   3]+0.163*[#   4]+0.163*[#   6]+0.163*[#   7]
          +0.163*[#   8]
    |psi|^2 = 0.976
==== e(   4) =     5.55695 eV ==== 
     psi = 0.158*[#   2]+0.158*[#   3]+0.158*[#   4]+0.158*[#   6]+0.158*[#   7]
          +0.158*[#   8]+0.012*[#   1]+0.012*[#   5]
    |psi|^2 = 0.973

 k =   0.0416666667 -0.0416666667  0.1250000000
==== e(   1) =    -5.76859 eV ==== 
     psi = 0.477*[#   1]+0.477*[#   5]+0.007*[#   2]+0.007*[#   3]+0.007*[#   4]
          +0.007*[#   6]+0.007*[#   7]+0.007*[#   8]
    |psi|^2 = 0.996
==== e(   2) =     5.25735 eV ==== 
     psi = 0.142*[#   2]+0.142*[#   3]+0.142*[#   4]+0.142*[#   6]+0.142*[#   7]
          +0.142*[#   8]+0.060*[#   1]+0.060*[#   5]
    |psi|^2 = 0.971
==== e(   3) =     5.68250 eV ==== 
     psi = 0.161*[#   2]+0.161*[#   3]+0.161*[#   4]+0.161*[#   6]+0.161*[#   7]
          +0.161*[#   8]
    |psi|^2 = 0.968
==== e(   4) =     5.77997 eV ==== 
     psi = 0.159*[#   2]+0.159*[#   3]+0.159*[#   4]+0.159*[#   6]+0.159*[#   7]
          +0.159*[#   8]+0.008*[#   1]+0.008*[#   5]
    |psi|^2 = 0.966

 k =  -0.0416666667  0.2083333333  0.0416666667
==== e(   1) =    -5.65007 eV ==== 
     psi = 0.451*[#   1]+0.451*[#   5]+0.016*[#   2]+0.016*[#   3]+0.016*[#   4]
          +0.016*[#   6]+0.016*[#   7]+0.016*[#   8]
    |psi|^2 = 0.996
==== e(   2) =     4.70393 eV ==== 
     psi = 0.128*[#   2]+0.128*[#   3]+0.128*[#   4]+0.128*[#   6]+0.128*[#   7]
          +0.128*[#   8]+0.104*[#   1]+0.104*[#   5]
    |psi|^2 = 0.975
==== e(   3) =     5.34439 eV ==== 
     psi = 0.162*[#   2]+0.162*[#   3]+0.162*[#   4]+0.162*[#   6]+0.162*[#   7]
          +0.162*[#   8]
    |psi|^2 = 0.975
==== e(   4) =     5.44031 eV ==== 
     psi = 0.157*[#   2]+0.157*[#   3]+0.157*[#   4]+0.157*[#   6]+0.157*[#   7]
          +0.157*[#   8]+0.016*[#   1]+0.016*[#   5]
    |psi|^2 = 0.973

 k =  -0.1250000000  0.2916666667 -0.0416666667
==== e(   1) =    -5.41515 eV ==== 
     psi = 0.415*[#   1]+0.415*[#   5]+0.028*[#   2]+0.028*[#   3]+0.028*[#   4]
          +0.028*[#   6]+0.028*[#   7]+0.028*[#   8]
    |psi|^2 = 0.996
==== e(   2) =     3.67490 eV ==== 
     psi = 0.138*[#   1]+0.138*[#   5]+0.118*[#   2]+0.118*[#   3]+0.118*[#   4]
          +0.118*[#   6]+0.118*[#   7]+0.118*[#   8]
    |psi|^2 = 0.981
==== e(   3) =     4.76654 eV ==== 
     psi = 0.159*[#   2]+0.159*[#   3]+0.159*[#   4]+0.159*[#   6]+0.159*[#   7]
          +0.159*[#   8]+0.015*[#   1]+0.015*[#   5]
    |psi|^2 = 0.981
==== e(   4) =     5.29784 eV ==== 
     psi = 0.158*[#   2]+0.158*[#   3]+0.158*[#   4]+0.158*[#   6]+0.158*[#   7]
          +0.158*[#   8]+0.016*[#   1]+0.016*[#   5]
    |psi|^2 = 0.977

 k =  -0.2083333333  0.3750000000 -0.1250000000
==== e(   1) =    -5.01376 eV ==== 
     psi = 0.379*[#   1]+0.379*[#   5]+0.040*[#   2]+0.040*[#   3]+0.040*[#   4]
          +0.040*[#   6]+0.040*[#   7]+0.040*[#   8]
    |psi|^2 = 0.996
==== e(   2) =     2.27875 eV ==== 
     psi = 0.157*[#   1]+0.157*[#   5]+0.112*[#   2]+0.112*[#   3]+0.112*[#   4]
          +0.112*[#   6]+0.112*[#   7]+0.112*[#   8]
    |psi|^2 = 0.986
==== e(   3) =     4.38801 eV ==== 
     psi = 0.154*[#   2]+0.154*[#   3]+0.154*[#   4]+0.154*[#   6]+0.154*[#   7]
          +0.154*[#   8]+0.031*[#   1]+0.031*[#   5]
    |psi|^2 = 0.985
==== e(   4) =     5.01176 eV ==== 
     psi = 0.158*[#   2]+0.158*[#   3]+0.158*[#   4]+0.158*[#   6]+0.158*[#   7]
          +0.158*[#   8]+0.018*[#   1]+0.018*[#   5]
    |psi|^2 = 0.983

 k =  -0.2916666667  0.4583333333 -0.2083333333
==== e(   1) =    -4.47071 eV ==== 
     psi = 0.358*[#   1]+0.358*[#   5]+0.047*[#   2]+0.047*[#   3]+0.047*[#   4]
          +0.047*[#   6]+0.047*[#   7]+0.047*[#   8]
    |psi|^2 = 0.995
==== e(   2) =     0.92419 eV ==== 
     psi = 0.166*[#   1]+0.166*[#   5]+0.109*[#   2]+0.109*[#   3]+0.109*[#   4]
          +0.109*[#   6]+0.109*[#   7]+0.109*[#   8]
    |psi|^2 = 0.989
==== e(   3) =     4.12882 eV ==== 
     psi = 0.150*[#   2]+0.150*[#   3]+0.150*[#   4]+0.150*[#   6]+0.150*[#   7]
          +0.150*[#   8]+0.044*[#   1]+0.044*[#   5]
    |psi|^2 = 0.987
==== e(   4) =     4.71492 eV ==== 
     psi = 0.160*[#   2]+0.160*[#   3]+0.160*[#   4]+0.160*[#   6]+0.160*[#   7]
          +0.160*[#   8]+0.013*[#   1]+0.013*[#   5]
    |psi|^2 = 0.986

 k =  -0.3750000000  0.5416666667 -0.2916666667
==== e(   1) =    -3.86193 eV ==== 
     psi = 0.359*[#   1]+0.359*[#   5]+0.046*[#   2]+0.046*[#   3]+0.046*[#   4]
          +0.046*[#   6]+0.046*[#   7]+0.046*[#   8]
    |psi|^2 = 0.996
==== e(   2) =    -0.21443 eV ==== 
     psi = 0.158*[#   1]+0.158*[#   5]+0.112*[#   2]+0.112*[#   3]+0.112*[#   4]
          +0.112*[#   6]+0.112*[#   7]+0.112*[#   8]
    |psi|^2 = 0.989
==== e(   3) =     3.94901 eV ==== 
     psi = 0.146*[#   2]+0.146*[#   3]+0.146*[#   4]+0.146*[#   6]+0.146*[#   7]
          +0.146*[#   8]+0.056*[#   1]+0.056*[#   5]
    |psi|^2 = 0.989
==== e(   4) =     4.52718 eV ==== 
     psi = 0.163*[#   2]+0.163*[#   3]+0.163*[#   4]+0.163*[#   6]+0.163*[#   7]
          +0.163*[#   8]+0.004*[#   1]+0.004*[#   5]
    |psi|^2 = 0.988

 k =   0.5416666667 -0.3750000000  0.6250000000
==== e(   1) =    -3.45532 eV ==== 
     psi = 0.376*[#   1]+0.376*[#   5]+0.041*[#   2]+0.041*[#   3]+0.041*[#   4]
          +0.041*[#   6]+0.041*[#   7]+0.041*[#   8]
    |psi|^2 = 0.997
==== e(   2) =    -0.83625 eV ==== 
     psi = 0.137*[#   1]+0.137*[#   5]+0.119*[#   2]+0.119*[#   3]+0.119*[#   4]
          +0.119*[#   6]+0.119*[#   7]+0.119*[#   8]
    |psi|^2 = 0.988
==== e(   3) =     3.82679 eV ==== 
     psi = 0.145*[#   2]+0.145*[#   3]+0.145*[#   4]+0.145*[#   6]+0.145*[#   7]
          +0.145*[#   8]+0.059*[#   1]+0.059*[#   5]
    |psi|^2 = 0.989
==== e(   4) =     4.50338 eV ==== 
     psi = 0.165*[#   2]+0.165*[#   3]+0.165*[#   4]+0.165*[#   6]+0.165*[#   7]
          +0.165*[#   8]
    |psi|^2 = 0.988

 k =   0.4583333333 -0.2916666667  0.5416666667
==== e(   1) =    -3.68153 eV ==== 
     psi = 0.365*[#   1]+0.365*[#   5]+0.045*[#   2]+0.045*[#   3]+0.045*[#   4]
          +0.045*[#   6]+0.045*[#   7]+0.045*[#   8]
    |psi|^2 = 0.996
==== e(   2) =    -0.50086 eV ==== 
     psi = 0.150*[#   1]+0.150*[#   5]+0.115*[#   2]+0.115*[#   3]+0.115*[#   4]
          +0.115*[#   6]+0.115*[#   7]+0.115*[#   8]
    |psi|^2 = 0.988
==== e(   3) =     3.78028 eV ==== 
     psi = 0.146*[#   2]+0.146*[#   3]+0.146*[#   4]+0.146*[#   6]+0.146*[#   7]
          +0.146*[#   8]+0.056*[#   1]+0.056*[#   5]
    |psi|^2 = 0.989
==== e(   4) =     4.63527 eV ==== 
     psi = 0.164*[#   2]+0.164*[#   3]+0.164*[#   4]+0.164*[#   6]+0.164*[#   7]
          +0.164*[#   8]+0.001*[#   1]+0.001*[#   5]
    |psi|^2 = 0.988

 k =   0.3750000000 -0.2083333333  0.4583333333
==== e(   1) =    -4.26990 eV ==== 
     psi = 0.356*[#   1]+0.356*[#   5]+0.047*[#   2]+0.047*[#   3]+0.047*[#   4]
          +0.047*[#   6]+0.047*[#   7]+0.047*[#   8]
    |psi|^2 = 0.995
==== e(   2) =     0.51548 eV ==== 
     psi = 0.165*[#   1]+0.165*[#   5]+0.110*[#   2]+0.110*[#   3]+0.110*[#   4]
          +0.110*[#   6]+0.110*[#   7]+0.110*[#   8]
    |psi|^2 = 0.989
==== e(   3) =     3.84230 eV ==== 
     psi = 0.148*[#   2]+0.148*[#   3]+0.148*[#   4]+0.148*[#   6]+0.148*[#   7]
          +0.148*[#   8]+0.050*[#   1]+0.050*[#   5]
    |psi|^2 = 0.988
==== e(   4) =     4.88531 eV ==== 
     psi = 0.163*[#   2]+0.163*[#   3]+0.163*[#   4]+0.163*[#   6]+0.163*[#   7]
          +0.163*[#   8]+0.004*[#   1]+0.004*[#   5]
    |psi|^2 = 0.986

 k =   0.2916666667 -0.1250000000  0.3750000000
==== e(   1) =    -4.84780 eV ==== 
     psi = 0.371*[#   1]+0.371*[#   5]+0.042*[#   2]+0.042*[#   3]+0.042*[#   4]
          +0.042*[#   6]+0.042*[#   7]+0.042*[#   8]
    |psi|^2 = 0.996
==== e(   2) =     1.81245 eV ==== 
     psi = 0.161*[#   1]+0.161*[#   5]+0.111*[#   2]+0.111*[#   3]+0.111*[#   4]
          +0.111*[#   6]+0.111*[#   7]+0.111*[#   8]
    |psi|^2 = 0.988
==== e(   3) =     4.04023 eV ==== 
     psi = 0.150*[#   2]+0.150*[#   3]+0.150*[#   4]+0.150*[#   6]+0.150*[#   7]
          +0.150*[#   8]+0.042*[#   1]+0.042*[#   5]
    |psi|^2 = 0.986
==== e(   4) =     5.20589 eV ==== 
     psi = 0.162*[#   2]+0.162*[#   3]+0.162*[#   4]+0.162*[#   6]+0.162*[#   7]
          +0.162*[#   8]+0.005*[#   1]+0.005*[#   5]
    |psi|^2 = 0.983

 k =   0.2083333333 -0.0416666667  0.2916666667
==== e(   1) =    -5.30002 eV ==== 
     psi = 0.403*[#   1]+0.403*[#   5]+0.032*[#   2]+0.032*[#   3]+0.032*[#   4]
          +0.032*[#   6]+0.032*[#   7]+0.032*[#   8]
    |psi|^2 = 0.996
==== e(   2) =     3.18153 eV ==== 
     psi = 0.144*[#   1]+0.144*[#   5]+0.116*[#   2]+0.116*[#   3]+0.116*[#   4]
          +0.116*[#   6]+0.116*[#   7]+0.116*[#   8]
    |psi|^2 = 0.984
==== e(   3) =     4.42107 eV ==== 
     psi = 0.155*[#   2]+0.155*[#   3]+0.155*[#   4]+0.155*[#   6]+0.155*[#   7]
          +0.155*[#   8]+0.027*[#   1]+0.027*[#   5]
    |psi|^2 = 0.983
==== e(   4) =     5.51693 eV ==== 
     psi = 0.161*[#   2]+0.161*[#   3]+0.161*[#   4]+0.161*[#   6]+0.161*[#   7]
          +0.161*[#   8]+0.005*[#   1]+0.005*[#   5]
    |psi|^2 = 0.977

 k =   0.1250000000  0.0416666667  0.2083333333
==== e(   1) =    -5.59149 eV ==== 
     psi = 0.441*[#   1]+0.441*[#   5]+0.019*[#   2]+0.019*[#   3]+0.019*[#   4]
          +0.019*[#   6]+0.019*[#   7]+0.019*[#   8]
    |psi|^2 = 0.996
==== e(   2) =     4.24971 eV ==== 
     psi = 0.127*[#   2]+0.127*[#   3]+0.127*[#   4]+0.127*[#   6]+0.127*[#   7]
          +0.127*[#   8]+0.109*[#   1]+0.109*[#   5]
    |psi|^2 = 0.978
==== e(   3) =     5.14939 eV ==== 
     psi = 0.159*[#   2]+0.159*[#   3]+0.159*[#   4]+0.159*[#   6]+0.159*[#   7]
          +0.159*[#   8]+0.010*[#   1]+0.010*[#   5]
    |psi|^2 = 0.977
==== e(   4) =     5.66912 eV ==== 
     psi = 0.159*[#   2]+0.159*[#   3]+0.159*[#   4]+0.159*[#   6]+0.159*[#   7]
          +0.159*[#   8]+0.007*[#   1]+0.007*[#   5]
    |psi|^2 = 0.971

 k =  -0.0416666667  0.3750000000  0.0416666667
==== e(   1) =    -5.23775 eV ==== 
     psi = 0.393*[#   1]+0.393*[#   5]+0.035*[#   2]+0.035*[#   3]+0.035*[#   4]
          +0.035*[#   6]+0.035*[#   7]+0.035*[#   8]
    |psi|^2 = 0.996
==== e(   2) =     3.40826 eV ==== 
     psi = 0.180*[#   1]+0.180*[#   5]+0.104*[#   2]+0.104*[#   3]+0.104*[#   4]
          +0.104*[#   6]+0.104*[#   7]+0.104*[#   8]
    |psi|^2 = 0.982
==== e(   3) =     4.60240 eV ==== 
     psi = 0.164*[#   2]+0.164*[#   3]+0.164*[#   4]+0.164*[#   6]+0.164*[#   7]
          +0.164*[#   8]
    |psi|^2 = 0.985
==== e(   4) =     4.61376 eV ==== 
     psi = 0.160*[#   2]+0.160*[#   3]+0.160*[#   4]+0.160*[#   6]+0.160*[#   7]
          +0.160*[#   8]+0.012*[#   1]+0.012*[#   5]
    |psi|^2 = 0.984

 k =  -0.1250000000  0.4583333333 -0.0416666667
==== e(   1) =    -4.89083 eV ==== 
     psi = 0.366*[#   1]+0.366*[#   5]+0.044*[#   2]+0.044*[#   3]+0.044*[#   4]
          +0.044*[#   6]+0.044*[#   7]+0.044*[#   8]
    |psi|^2 = 0.995
==== e(   2) =     2.46167 eV ==== 
     psi = 0.195*[#   1]+0.195*[#   5]+0.099*[#   2]+0.099*[#   3]+0.099*[#   4]
          +0.099*[#   6]+0.099*[#   7]+0.099*[#   8]
    |psi|^2 = 0.986
==== e(   3) =     4.02855 eV ==== 
     psi = 0.158*[#   2]+0.158*[#   3]+0.158*[#   4]+0.158*[#   6]+0.158*[#   7]
          +0.158*[#   8]+0.019*[#   1]+0.019*[#   5]
    |psi|^2 = 0.988
==== e(   4) =     4.43492 eV ==== 
     psi = 0.161*[#   2]+0.161*[#   3]+0.161*[#   4]+0.161*[#   6]+0.161*[#   7]
          +0.161*[#   8]+0.011*[#   1]+0.011*[#   5]
    |psi|^2 = 0.987

 k =  -0.2083333333  0.5416666667 -0.1250000000
==== e(   1) =    -4.39152 eV ==== 
     psi = 0.346*[#   1]+0.346*[#   5]+0.051*[#   2]+0.051*[#   3]+0.051*[#   4]
          +0.051*[#   6]+0.051*[#   7]+0.051*[#   8]
    |psi|^2 = 0.995
==== e(   2) =     1.28097 eV ==== 
     psi = 0.198*[#   1]+0.198*[#   5]+0.099*[#   2]+0.099*[#   3]+0.099*[#   4]
          +0.099*[#   6]+0.099*[#   7]+0.099*[#   8]
    |psi|^2 = 0.989
==== e(   3) =     3.57758 eV ==== 
     psi = 0.149*[#   2]+0.149*[#   3]+0.149*[#   4]+0.149*[#   6]+0.149*[#   7]
          +0.149*[#   8]+0.046*[#   1]+0.046*[#   5]
    |psi|^2 = 0.990
==== e(   4) =     4.17666 eV ==== 
     psi = 0.163*[#   2]+0.163*[#   3]+0.163*[#   4]+0.163*[#   6]+0.163*[#   7]
          +0.163*[#   8]+0.007*[#   1]+0.007*[#   5]
    |psi|^2 = 0.989

 k =  -0.2916666667  0.6250000000 -0.2083333333
==== e(   1) =    -3.78920 eV ==== 
     psi = 0.340*[#   1]+0.340*[#   5]+0.052*[#   2]+0.052*[#   3]+0.052*[#   4]
          +0.052*[#   6]+0.052*[#   7]+0.052*[#   8]
    |psi|^2 = 0.995
==== e(   2) =     0.15298 eV ==== 
     psi = 0.192*[#   1]+0.192*[#   5]+0.101*[#   2]+0.101*[#   3]+0.101*[#   4]
          +0.101*[#   6]+0.101*[#   7]+0.101*[#   8]
    |psi|^2 = 0.990
==== e(   3) =     3.18807 eV ==== 
     psi = 0.145*[#   2]+0.145*[#   3]+0.145*[#   4]+0.145*[#   6]+0.145*[#   7]
          +0.145*[#   8]+0.061*[#   1]+0.061*[#   5]
    |psi|^2 = 0.991
==== e(   4) =     4.04204 eV ==== 
     psi = 0.165*[#   2]+0.165*[#   3]+0.165*[#   4]+0.165*[#   6]+0.165*[#   7]
          +0.165*[#   8]+0.001*[#   1]+0.001*[#   5]
    |psi|^2 = 0.990

 k =   0.6250000000 -0.2916666667  0.7083333333
==== e(   1) =    -3.26067 eV ==== 
     psi = 0.354*[#   1]+0.354*[#   5]+0.048*[#   2]+0.048*[#   3]+0.048*[#   4]
          +0.048*[#   6]+0.048*[#   7]+0.048*[#   8]
    |psi|^2 = 0.996
==== e(   2) =    -0.65044 eV ==== 
     psi = 0.173*[#   1]+0.173*[#   5]+0.107*[#   2]+0.107*[#   3]+0.107*[#   4]
          +0.107*[#   6]+0.107*[#   7]+0.107*[#   8]
    |psi|^2 = 0.990
==== e(   3) =     2.88326 eV ==== 
     psi = 0.144*[#   2]+0.144*[#   3]+0.144*[#   4]+0.144*[#   6]+0.144*[#   7]
          +0.144*[#   8]+0.064*[#   1]+0.064*[#   5]
    |psi|^2 = 0.992
==== e(   4) =     4.07726 eV ==== 
     psi = 0.165*[#   2]+0.165*[#   3]+0.165*[#   4]+0.165*[#   6]+0.165*[#   7]
          +0.165*[#   8]
    |psi|^2 = 0.990

 k =   0.5416666667 -0.2083333333  0.6250000000
==== e(   1) =    -3.27124 eV ==== 
     psi = 0.355*[#   1]+0.355*[#   5]+0.048*[#   2]+0.048*[#   3]+0.048*[#   4]
          +0.048*[#   6]+0.048*[#   7]+0.048*[#   8]
    |psi|^2 = 0.996
==== e(   2) =    -0.63205 eV ==== 
     psi = 0.172*[#   1]+0.172*[#   5]+0.108*[#   2]+0.108*[#   3]+0.108*[#   4]
          +0.108*[#   6]+0.108*[#   7]+0.108*[#   8]
    |psi|^2 = 0.990
==== e(   3) =     2.70672 eV ==== 
     psi = 0.145*[#   2]+0.145*[#   3]+0.145*[#   4]+0.145*[#   6]+0.145*[#   7]
          +0.145*[#   8]+0.061*[#   1]+0.061*[#   5]
    |psi|^2 = 0.992
==== e(   4) =     4.26282 eV ==== 
     psi = 0.165*[#   2]+0.165*[#   3]+0.165*[#   4]+0.165*[#   6]+0.165*[#   7]
          +0.165*[#   8]+0.001*[#   1]+0.001*[#   5]
    |psi|^2 = 0.989

 k =   0.4583333333 -0.1250000000  0.5416666667
==== e(   1) =    -3.80609 eV ==== 
     psi = 0.344*[#   1]+0.344*[#   5]+0.051*[#   2]+0.051*[#   3]+0.051*[#   4]
          +0.051*[#   6]+0.051*[#   7]+0.051*[#   8]
    |psi|^2 = 0.995
==== e(   2) =     0.18393 eV ==== 
     psi = 0.189*[#   1]+0.189*[#   5]+0.102*[#   2]+0.102*[#   3]+0.102*[#   4]
          +0.102*[#   6]+0.102*[#   7]+0.102*[#   8]
    |psi|^2 = 0.991
==== e(   3) =     2.70141 eV ==== 
     psi = 0.147*[#   2]+0.147*[#   3]+0.147*[#   4]+0.147*[#   6]+0.147*[#   7]
          +0.147*[#   8]+0.055*[#   1]+0.055*[#   5]
    |psi|^2 = 0.991
==== e(   4) =     4.56678 eV ==== 
     psi = 0.164*[#   2]+0.164*[#   3]+0.164*[#   4]+0.164*[#   6]+0.164*[#   7]
          +0.164*[#   8]+0.002*[#   1]+0.002*[#   5]
    |psi|^2 = 0.988

 k =   0.3750000000 -0.0416666667  0.4583333333
==== e(   1) =    -4.40565 eV ==== 
     psi = 0.351*[#   1]+0.351*[#   5]+0.049*[#   2]+0.049*[#   3]+0.049*[#   4]
          +0.049*[#   6]+0.049*[#   7]+0.049*[#   8]
    |psi|^2 = 0.995
==== e(   2) =     1.25615 eV ==== 
     psi = 0.193*[#   1]+0.193*[#   5]+0.101*[#   2]+0.101*[#   3]+0.101*[#   4]
          +0.101*[#   6]+0.101*[#   7]+0.101*[#   8]
    |psi|^2 = 0.990
==== e(   3) =     2.95089 eV ==== 
     psi = 0.150*[#   2]+0.150*[#   3]+0.150*[#   4]+0.150*[#   6]+0.150*[#   7]
          +0.150*[#   8]+0.044*[#   1]+0.044*[#   5]
    |psi|^2 = 0.989
==== e(   4) =     4.93707 eV ==== 
     psi = 0.163*[#   2]+0.163*[#   3]+0.163*[#   4]+0.163*[#   6]+0.163*[#   7]
          +0.163*[#   8]+0.003*[#   1]+0.003*[#   5]
    |psi|^2 = 0.986

 k =   0.2916666667  0.0416666667  0.3750000000
==== e(   1) =    -4.90077 eV ==== 
     psi = 0.372*[#   1]+0.372*[#   5]+0.042*[#   2]+0.042*[#   3]+0.042*[#   4]
          +0.042*[#   6]+0.042*[#   7]+0.042*[#   8]
    |psi|^2 = 0.996
==== e(   2) =     2.17136 eV ==== 
     psi = 0.171*[#   1]+0.171*[#   5]+0.107*[#   2]+0.107*[#   3]+0.107*[#   4]
          +0.107*[#   6]+0.107*[#   7]+0.107*[#   8]
    |psi|^2 = 0.987
==== e(   3) =     3.66054 eV ==== 
     psi = 0.151*[#   2]+0.151*[#   3]+0.151*[#   4]+0.151*[#   6]+0.151*[#   7]
          +0.151*[#   8]+0.040*[#   1]+0.040*[#   5]
    |psi|^2 = 0.987
==== e(   4) =     5.27121 eV ==== 
     psi = 0.162*[#   2]+0.162*[#   3]+0.162*[#   4]+0.162*[#   6]+0.162*[#   7]
          +0.162*[#   8]+0.004*[#   1]+0.004*[#   5]
    |psi|^2 = 0.982

 k =   0.2083333333  0.1250000000  0.2916666667
==== e(   1) =    -5.24356 eV ==== 
     psi = 0.398*[#   1]+0.398*[#   5]+0.033*[#   2]+0.033*[#   3]+0.033*[#   4]
          +0.033*[#   6]+0.033*[#   7]+0.033*[#   8]
    |psi|^2 = 0.996
==== e(   2) =     2.78844 eV ==== 
     psi = 0.140*[#   1]+0.140*[#   5]+0.117*[#   2]+0.117*[#   3]+0.117*[#   4]
          +0.117*[#   6]+0.117*[#   7]+0.117*[#   8]
    |psi|^2 = 0.985
==== e(   3) =     4.77184 eV ==== 
     psi = 0.157*[#   2]+0.157*[#   3]+0.157*[#   4]+0.157*[#   6]+0.157*[#   7]
          +0.157*[#   8]+0.020*[#   1]+0.020*[#   5]
    |psi|^2 = 0.982
==== e(   4) =     5.39409 eV ==== 
     psi = 0.160*[#   2]+0.160*[#   3]+0.160*[#   4]+0.160*[#   6]+0.160*[#   7]
          +0.160*[#   8]+0.009*[#   1]+0.009*[#   5]
    |psi|^2 = 0.978

 k =  -0.0416666667  0.5416666667  0.0416666667
==== e(   1) =    -4.59806 eV ==== 
     psi = 0.348*[#   1]+0.348*[#   5]+0.050*[#   2]+0.050*[#   3]+0.050*[#   4]
          +0.050*[#   6]+0.050*[#   7]+0.050*[#   8]
    |psi|^2 = 0.995
==== e(   2) =     1.99912 eV ==== 
     psi = 0.227*[#   1]+0.227*[#   5]+0.089*[#   2]+0.089*[#   3]+0.089*[#   4]
          +0.089*[#   6]+0.089*[#   7]+0.089*[#   8]
    |psi|^2 = 0.987
==== e(   3) =     3.90699 eV ==== 
     psi = 0.163*[#   2]+0.163*[#   3]+0.163*[#   4]+0.163*[#   6]+0.163*[#   7]
          +0.163*[#   8]+0.006*[#   1]+0.006*[#   5]
    |psi|^2 = 0.990
==== e(   4) =     3.95924 eV ==== 
     psi = 0.165*[#   2]+0.165*[#   3]+0.165*[#   4]+0.165*[#   6]+0.165*[#   7]
          +0.165*[#   8]
    |psi|^2 = 0.990

 k =  -0.1250000000  0.6250000000 -0.0416666667
==== e(   1) =    -4.14691 eV ==== 
     psi = 0.331*[#   1]+0.331*[#   5]+0.055*[#   2]+0.055*[#   3]+0.055*[#   4]
          +0.055*[#   6]+0.055*[#   7]+0.055*[#   8]
    |psi|^2 = 0.995
==== e(   2) =     1.16748 eV ==== 
     psi = 0.239*[#   1]+0.239*[#   5]+0.085*[#   2]+0.085*[#   3]+0.085*[#   4]
          +0.085*[#   6]+0.085*[#   7]+0.085*[#   8]
    |psi|^2 = 0.990
==== e(   3) =     3.42477 eV ==== 
     psi = 0.160*[#   2]+0.160*[#   3]+0.160*[#   4]+0.160*[#   6]+0.160*[#   7]
          +0.160*[#   8]+0.016*[#   1]+0.016*[#   5]
    |psi|^2 = 0.992
==== e(   4) =     3.73488 eV ==== 
     psi = 0.165*[#   2]+0.165*[#   3]+0.165*[#   4]+0.165*[#   6]+0.165*[#   7]
          +0.165*[#   8]+0.001*[#   1]+0.001*[#   5]
    |psi|^2 = 0.992

 k =  -0.2083333333  0.7083333333 -0.1250000000
==== e(   1) =    -3.56936 eV ==== 
     psi = 0.323*[#   1]+0.323*[#   5]+0.058*[#   2]+0.058*[#   3]+0.058*[#   4]
          +0.058*[#   6]+0.058*[#   7]+0.058*[#   8]
    |psi|^2 = 0.995
==== e(   2) =     0.24864 eV ==== 
     psi = 0.243*[#   1]+0.243*[#   5]+0.084*[#   2]+0.084*[#   3]+0.084*[#   4]
          +0.084*[#   6]+0.084*[#   7]+0.084*[#   8]
    |psi|^2 = 0.991
==== e(   3) =     2.80508 eV ==== 
     psi = 0.156*[#   2]+0.156*[#   3]+0.156*[#   4]+0.156*[#   6]+0.156*[#   7]
          +0.156*[#   8]+0.028*[#   1]+0.028*[#   5]
    |psi|^2 = 0.992
==== e(   4) =     3.60829 eV ==== 
     psi = 0.165*[#   2]+0.165*[#   3]+0.165*[#   4]+0.165*[#   6]+0.165*[#   7]
          +0.165*[#   8]
    |psi|^2 = 0.992

 k =   0.7083333333 -0.2083333333  0.7916666667
==== e(   1) =    -2.97628 eV ==== 
     psi = 0.329*[#   1]+0.329*[#   5]+0.056*[#   2]+0.056*[#   3]+0.056*[#   4]
          +0.056*[#   6]+0.056*[#   7]+0.056*[#   8]
    |psi|^2 = 0.995
==== e(   2) =    -0.55328 eV ==== 
     psi = 0.233*[#   1]+0.233*[#   5]+0.088*[#   2]+0.088*[#   3]+0.088*[#   4]
          +0.088*[#   6]+0.088*[#   7]+0.088*[#   8]
    |psi|^2 = 0.992
==== e(   3) =     2.26822 eV ==== 
     psi = 0.155*[#   2]+0.155*[#   3]+0.155*[#   4]+0.155*[#   6]+0.155*[#   7]
          +0.155*[#   8]+0.031*[#   1]+0.031*[#   5]
    |psi|^2 = 0.993
==== e(   4) =     3.64694 eV ==== 
     psi = 0.165*[#   2]+0.165*[#   3]+0.165*[#   4]+0.165*[#   6]+0.165*[#   7]
          +0.165*[#   8]+0.001*[#   1]+0.001*[#   5]
    |psi|^2 = 0.992

 k =   0.6250000000 -0.1250000000  0.7083333333
==== e(   1) =    -2.77906 eV ==== 
     psi = 0.341*[#   1]+0.341*[#   5]+0.052*[#   2]+0.052*[#   3]+0.052*[#   4]
          +0.052*[#   6]+0.052*[#   7]+0.052*[#   8]
    |psi|^2 = 0.996
==== e(   2) =    -0.78653 eV ==== 
     psi = 0.221*[#   1]+0.221*[#   5]+0.092*[#   2]+0.092*[#   3]+0.092*[#   4]
          +0.092*[#   6]+0.092*[#   7]+0.092*[#   8]
    |psi|^2 = 0.992
==== e(   3) =     1.93746 eV ==== 
     psi = 0.156*[#   2]+0.156*[#   3]+0.156*[#   4]+0.156*[#   6]+0.156*[#   7]
          +0.156*[#   8]+0.029*[#   1]+0.029*[#   5]
    |psi|^2 = 0.993
==== e(   4) =     3.83697 eV ==== 
     psi = 0.165*[#   2]+0.165*[#   3]+0.165*[#   4]+0.165*[#   6]+0.165*[#   7]
          +0.165*[#   8]+0.002*[#   1]+0.002*[#   5]
    |psi|^2 = 0.991

 k =   0.5416666667 -0.0416666667  0.6250000000
==== e(   1) =    -3.23253 eV ==== 
     psi = 0.335*[#   1]+0.335*[#   5]+0.054*[#   2]+0.054*[#   3]+0.054*[#   4]
          +0.054*[#   6]+0.054*[#   7]+0.054*[#   8]
    |psi|^2 = 0.996
==== e(   2) =    -0.22949 eV ==== 
     psi = 0.229*[#   1]+0.229*[#   5]+0.089*[#   2]+0.089*[#   3]+0.089*[#   4]
          +0.089*[#   6]+0.089*[#   7]+0.089*[#   8]
    |psi|^2 = 0.993
==== e(   3) =     1.90529 eV ==== 
     psi = 0.157*[#   2]+0.157*[#   3]+0.157*[#   4]+0.157*[#   6]+0.157*[#   7]
          +0.157*[#   8]+0.026*[#   1]+0.026*[#   5]
    |psi|^2 = 0.992
==== e(   4) =     4.15376 eV ==== 
     psi = 0.164*[#   2]+0.164*[#   3]+0.164*[#   4]+0.164*[#   6]+0.164*[#   7]
          +0.164*[#   8]+0.002*[#   1]+0.002*[#   5]
    |psi|^2 = 0.990

 k =   0.4583333333  0.0416666667  0.5416666667
==== e(   1) =    -3.83621 eV ==== 
     psi = 0.339*[#   1]+0.339*[#   5]+0.053*[#   2]+0.053*[#   3]+0.053*[#   4]
          +0.053*[#   6]+0.053*[#   7]+0.053*[#   8]
    |psi|^2 = 0.995
==== e(   2) =     0.45237 eV ==== 
     psi = 0.212*[#   1]+0.212*[#   5]+0.095*[#   2]+0.095*[#   3]+0.095*[#   4]
          +0.095*[#   6]+0.095*[#   7]+0.095*[#   8]
    |psi|^2 = 0.992
==== e(   3) =     2.34804 eV ==== 
     psi = 0.152*[#   2]+0.152*[#   3]+0.152*[#   4]+0.152*[#   6]+0.152*[#   7]
          +0.152*[#   8]+0.039*[#   1]+0.039*[#   5]
    |psi|^2 = 0.991
==== e(   4) =     4.54953 eV ==== 
     psi = 0.164*[#   2]+0.164*[#   3]+0.164*[#   4]+0.164*[#   6]+0.164*[#   7]
          +0.164*[#   8]+0.002*[#   1]+0.002*[#   5]
    |psi|^2 = 0.988

 k =   0.3750000000  0.1250000000  0.4583333333
==== e(   1) =    -4.35975 eV ==== 
     psi = 0.353*[#   1]+0.353*[#   5]+0.048*[#   2]+0.048*[#   3]+0.048*[#   4]
          +0.048*[#   6]+0.048*[#   7]+0.048*[#   8]
    |psi|^2 = 0.995
==== e(   2) =     0.93517 eV ==== 
     psi = 0.177*[#   1]+0.177*[#   5]+0.106*[#   2]+0.106*[#   3]+0.106*[#   4]
          +0.106*[#   6]+0.106*[#   7]+0.106*[#   8]
    |psi|^2 = 0.990
==== e(   3) =     3.32711 eV ==== 
     psi = 0.147*[#   2]+0.147*[#   3]+0.147*[#   4]+0.147*[#   6]+0.147*[#   7]
          +0.147*[#   8]+0.054*[#   1]+0.054*[#   5]
    |psi|^2 = 0.989
==== e(   4) =     4.92133 eV ==== 
     psi = 0.163*[#   2]+0.163*[#   3]+0.163*[#   4]+0.163*[#   6]+0.163*[#   7]
          +0.163*[#   8]+0.003*[#   1]+0.003*[#   5]
    |psi|^2 = 0.986

 k =   0.2916666667  0.2083333333  0.3750000000
==== e(   1) =    -4.74270 eV ==== 
     psi = 0.369*[#   1]+0.369*[#   5]+0.043*[#   2]+0.043*[#   3]+0.043*[#   4]
          +0.043*[#   6]+0.043*[#   7]+0.043*[#   8]
    |psi|^2 = 0.996
==== e(   2) =     1.35453 eV ==== 
     psi = 0.157*[#   1]+0.157*[#   5]+0.112*[#   2]+0.112*[#   3]+0.112*[#   4]
          +0.112*[#   6]+0.112*[#   7]+0.112*[#   8]
    |psi|^2 = 0.988
==== e(   3) =     4.50666 eV ==== 
     psi = 0.155*[#   2]+0.155*[#   3]+0.155*[#   4]+0.155*[#   6]+0.155*[#   7]
          +0.155*[#   8]+0.027*[#   1]+0.027*[#   5]
    |psi|^2 = 0.985
==== e(   4) =     5.07973 eV ==== 
     psi = 0.161*[#   2]+0.161*[#   3]+0.161*[#   4]+0.161*[#   6]+0.161*[#   7]
          +0.161*[#   8]+0.009*[#   1]+0.009*[#   5]
    |psi|^2 = 0.983

 k =  -0.0416666667  0.7083333333  0.0416666667
==== e(   1) =    -3.74338 eV ==== 
     psi = 0.318*[#   1]+0.318*[#   5]+0.060*[#   2]+0.060*[#   3]+0.060*[#   4]
          +0.060*[#   6]+0.060*[#   7]+0.060*[#   8]
    |psi|^2 = 0.994
==== e(   2) =     0.56877 eV ==== 
     psi = 0.255*[#   1]+0.255*[#   5]+0.080*[#   2]+0.080*[#   3]+0.080*[#   4]
          +0.080*[#   6]+0.080*[#   7]+0.080*[#   8]
    |psi|^2 = 0.991
==== e(   3) =     3.40350 eV ==== 
     psi = 0.164*[#   2]+0.164*[#   3]+0.164*[#   4]+0.164*[#   6]+0.164*[#   7]
          +0.164*[#   8]+0.003*[#   1]+0.003*[#   5]
    |psi|^2 = 0.993
==== e(   4) =     3.49127 eV ==== 
     psi = 0.166*[#   2]+0.166*[#   3]+0.166*[#   4]+0.166*[#   6]+0.166*[#   7]
          +0.166*[#   8]
    |psi|^2 = 0.993

 k =  -0.1250000000  0.7916666667 -0.0416666667
==== e(   1) =    -3.20082 eV ==== 
     psi = 0.308*[#   1]+0.308*[#   5]+0.063*[#   2]+0.063*[#   3]+0.063*[#   4]
          +0.063*[#   6]+0.063*[#   7]+0.063*[#   8]
    |psi|^2 = 0.994
==== e(   2) =    -0.16637 eV ==== 
     psi = 0.267*[#   1]+0.267*[#   5]+0.076*[#   2]+0.076*[#   3]+0.076*[#   4]
          +0.076*[#   6]+0.076*[#   7]+0.076*[#   8]
    |psi|^2 = 0.992
==== e(   3) =     3.01337 eV ==== 
     psi = 0.162*[#   2]+0.162*[#   3]+0.162*[#   4]+0.162*[#   6]+0.162*[#   7]
          +0.162*[#   8]+0.009*[#   1]+0.009*[#   5]
    |psi|^2 = 0.993
==== e(   4) =     3.29592 eV ==== 
     psi = 0.165*[#   2]+0.165*[#   3]+0.165*[#   4]+0.165*[#   6]+0.165*[#   7]
          +0.165*[#   8]
    |psi|^2 = 0.993

 k =   0.7916666667 -0.1250000000  0.8750000000
==== e(   1) =    -2.58553 eV ==== 
     psi = 0.307*[#   1]+0.307*[#   5]+0.063*[#   2]+0.063*[#   3]+0.063*[#   4]
          +0.063*[#   6]+0.063*[#   7]+0.063*[#   8]
    |psi|^2 = 0.994
==== e(   2) =    -0.85803 eV ==== 
     psi = 0.274*[#   1]+0.274*[#   5]+0.074*[#   2]+0.074*[#   3]+0.074*[#   4]
          +0.074*[#   6]+0.074*[#   7]+0.074*[#   8]
    |psi|^2 = 0.993
==== e(   3) =     2.32046 eV ==== 
     psi = 0.163*[#   2]+0.163*[#   3]+0.163*[#   4]+0.163*[#   6]+0.163*[#   7]
          +0.163*[#   8]+0.008*[#   1]+0.008*[#   5]
    |psi|^2 = 0.993
==== e(   4) =     3.31161 eV ==== 
     psi = 0.165*[#   2]+0.165*[#   3]+0.165*[#   4]+0.165*[#   6]+0.165*[#   7]
          +0.165*[#   8]+0.002*[#   1]+0.002*[#   5]
    |psi|^2 = 0.993

 k =   0.7083333333 -0.0416666667  0.7916666667
==== e(   1) =    -2.25153 eV ==== 
     psi = 0.325*[#   1]+0.325*[#   5]+0.057*[#   2]+0.057*[#   3]+0.057*[#   4]
          +0.057*[#   6]+0.057*[#   7]+0.057*[#   8]
    |psi|^2 = 0.995
==== e(   2) =    -1.17645 eV ==== 
     psi = 0.263*[#   1]+0.263*[#   5]+0.078*[#   2]+0.078*[#   3]+0.078*[#   4]
          +0.078*[#   6]+0.078*[#   7]+0.078*[#   8]
    |psi|^2 = 0.993
==== e(   3) =     1.78961 eV ==== 
     psi = 0.165*[#   2]+0.165*[#   3]+0.165*[#   4]+0.165*[#   6]+0.165*[#   7]
          +0.165*[#   8]+0.002*[#   1]+0.002*[#   5]
    |psi|^2 = 0.993
==== e(   4) =     3.48259 eV ==== 
     psi = 0.165*[#   2]+0.165*[#   3]+0.165*[#   4]+0.165*[#   6]+0.165*[#   7]
          +0.165*[#   8]+0.002*[#   1]+0.002*[#   5]
    |psi|^2 = 0.993

 k =   0.6250000000  0.0416666667  0.7083333333
==== e(   1) =    -2.66743 eV ==== 
     psi = 0.334*[#   1]+0.334*[#   5]+0.055*[#   2]+0.055*[#   3]+0.055*[#   4]
          +0.055*[#   6]+0.055*[#   7]+0.055*[#   8]
    |psi|^2 = 0.996
==== e(   2) =    -0.77861 eV ==== 
     psi = 0.245*[#   1]+0.245*[#   5]+0.084*[#   2]+0.084*[#   3]+0.084*[#   4]
          +0.084*[#   6]+0.084*[#   7]+0.084*[#   8]
    |psi|^2 = 0.993
==== e(   3) =     1.69170 eV ==== 
     psi = 0.162*[#   2]+0.162*[#   3]+0.162*[#   4]+0.162*[#   6]+0.162*[#   7]
          +0.162*[#   8]+0.010*[#   1]+0.010*[#   5]
    |psi|^2 = 0.992
==== e(   4) =     3.78881 eV ==== 
     psi = 0.165*[#   2]+0.165*[#   3]+0.165*[#   4]+0.165*[#   6]+0.165*[#   7]
          +0.165*[#   8]+0.002*[#   1]+0.002*[#   5]
    |psi|^2 = 0.992

 k =   0.5416666667  0.1250000000  0.6250000000
==== e(   1) =    -3.24171 eV ==== 
     psi = 0.342*[#   1]+0.342*[#   5]+0.052*[#   2]+0.052*[#   3]+0.052*[#   4]
          +0.052*[#   6]+0.052*[#   7]+0.052*[#   8]
    |psi|^2 = 0.996
==== e(   2) =    -0.40888 eV ==== 
     psi = 0.202*[#   1]+0.202*[#   5]+0.098*[#   2]+0.098*[#   3]+0.098*[#   4]
          +0.098*[#   6]+0.098*[#   7]+0.098*[#   8]
    |psi|^2 = 0.992
==== e(   3) =     2.21635 eV ==== 
     psi = 0.150*[#   2]+0.150*[#   3]+0.150*[#   4]+0.150*[#   6]+0.150*[#   7]
          +0.150*[#   8]+0.045*[#   1]+0.045*[#   5]
    |psi|^2 = 0.992
==== e(   4) =     4.19065 eV ==== 
     psi = 0.164*[#   2]+0.164*[#   3]+0.164*[#   4]+0.164*[#   6]+0.164*[#   7]
          +0.164*[#   8]+0.002*[#   1]+0.002*[#   5]
    |psi|^2 = 0.990

 k =   0.4583333333  0.2083333333  0.5416666667
==== e(   1) =    -3.75089 eV ==== 
     psi = 0.353*[#   1]+0.353*[#   5]+0.048*[#   2]+0.048*[#   3]+0.048*[#   4]
          +0.048*[#   6]+0.048*[#   7]+0.048*[#   8]
    |psi|^2 = 0.996
==== e(   2) =    -0.17059 eV ==== 
     psi = 0.168*[#   1]+0.168*[#   5]+0.109*[#   2]+0.109*[#   3]+0.109*[#   4]
          +0.109*[#   6]+0.109*[#   7]+0.109*[#   8]
    |psi|^2 = 0.990
==== e(   3) =     3.22059 eV ==== 
     psi = 0.145*[#   2]+0.145*[#   3]+0.145*[#   4]+0.145*[#   6]+0.145*[#   7]
          +0.145*[#   8]+0.061*[#   1]+0.061*[#   5]
    |psi|^2 = 0.990
==== e(   4) =     4.59761 eV ==== 
     psi = 0.164*[#   2]+0.164*[#   3]+0.164*[#   4]+0.164*[#   6]+0.164*[#   7]
          +0.164*[#   8]+0.002*[#   1]+0.002*[#   5]
    |psi|^2 = 0.988

 k =   0.3750000000  0.2916666667  0.4583333333
==== e(   1) =    -4.14044 eV ==== 
     psi = 0.361*[#   1]+0.361*[#   5]+0.046*[#   2]+0.046*[#   3]+0.046*[#   4]
          +0.046*[#   6]+0.046*[#   7]+0.046*[#   8]
    |psi|^2 = 0.996
==== e(   2) =     0.10327 eV ==== 
     psi = 0.156*[#   1]+0.156*[#   5]+0.113*[#   2]+0.113*[#   3]+0.113*[#   4]
          +0.113*[#   6]+0.113*[#   7]+0.113*[#   8]
    |psi|^2 = 0.988
==== e(   3) =     4.34992 eV ==== 
     psi = 0.153*[#   2]+0.153*[#   3]+0.153*[#   4]+0.153*[#   6]+0.153*[#   7]
          +0.153*[#   8]+0.033*[#   1]+0.033*[#   5]
    |psi|^2 = 0.987
==== e(   4) =     4.82158 eV ==== 
     psi = 0.163*[#   2]+0.163*[#   3]+0.163*[#   4]+0.163*[#   6]+0.163*[#   7]
          +0.163*[#   8]+0.005*[#   1]+0.005*[#   5]
    |psi|^2 = 0.986

 k =  -0.0416666667  0.8750000000  0.0416666667
==== e(   1) =    -2.69316 eV ==== 
     psi = 0.298*[#   1]+0.298*[#   5]+0.066*[#   2]+0.066*[#   3]+0.066*[#   4]
          +0.066*[#   6]+0.066*[#   7]+0.066*[#   8]
    |psi|^2 = 0.994
==== e(   2) =    -0.81759 eV ==== 
     psi = 0.275*[#   1]+0.275*[#   5]+0.074*[#   2]+0.074*[#   3]+0.074*[#   4]
          +0.074*[#   6]+0.074*[#   7]+0.074*[#   8]
    |psi|^2 = 0.992
==== e(   3) =     3.12044 eV ==== 
     psi = 0.165*[#   2]+0.165*[#   3]+0.165*[#   4]+0.165*[#   6]+0.165*[#   7]
          +0.165*[#   8]+0.002*[#   1]+0.002*[#   5]
    |psi|^2 = 0.994
==== e(   4) =     3.22531 eV ==== 
     psi = 0.166*[#   2]+0.166*[#   3]+0.166*[#   4]+0.166*[#   6]+0.166*[#   7]
          +0.166*[#   8]
    |psi|^2 = 0.994

 k =   0.8750000000 -0.0416666667  0.9583333333
==== e(   1) =    -2.08132 eV ==== 
     psi = 0.292*[#   1]+0.292*[#   5]+0.068*[#   2]+0.068*[#   3]+0.068*[#   4]
          +0.068*[#   6]+0.068*[#   7]+0.068*[#   8]
    |psi|^2 = 0.993
==== e(   2) =    -1.46356 eV ==== 
     psi = 0.284*[#   1]+0.284*[#   5]+0.071*[#   2]+0.071*[#   3]+0.071*[#   4]
          +0.071*[#   6]+0.071*[#   7]+0.071*[#   8]
    |psi|^2 = 0.993
==== e(   3) =     2.83128 eV ==== 
     psi = 0.164*[#   2]+0.164*[#   3]+0.164*[#   4]+0.164*[#   6]+0.164*[#   7]
          +0.164*[#   8]+0.006*[#   1]+0.006*[#   5]
    |psi|^2 = 0.993
==== e(   4) =     3.11192 eV ==== 
     psi = 0.165*[#   2]+0.165*[#   3]+0.165*[#   4]+0.165*[#   6]+0.165*[#   7]
          +0.165*[#   8]+0.002*[#   1]+0.002*[#   5]
    |psi|^2 = 0.994

 k =   0.7916666667  0.0416666667  0.8750000000
==== e(   1) =    -2.07643 eV ==== 
     psi = 0.305*[#   1]+0.305*[#   5]+0.064*[#   2]+0.064*[#   3]+0.064*[#   4]
          +0.064*[#   6]+0.064*[#   7]+0.064*[#   8]
    |psi|^2 = 0.994
==== e(   2) =    -1.39469 eV ==== 
     psi = 0.280*[#   1]+0.280*[#   5]+0.072*[#   2]+0.072*[#   3]+0.072*[#   4]
          +0.072*[#   6]+0.072*[#   7]+0.072*[#   8]
    |psi|^2 = 0.993
==== e(   3) =     2.22211 eV ==== 
     psi = 0.164*[#   2]+0.164*[#   3]+0.164*[#   4]+0.164*[#   6]+0.164*[#   7]
          +0.164*[#   8]+0.005*[#   1]+0.005*[#   5]
    |psi|^2 = 0.993
==== e(   4) =     3.25327 eV ==== 
     psi = 0.165*[#   2]+0.165*[#   3]+0.165*[#   4]+0.165*[#   6]+0.165*[#   7]
          +0.165*[#   8]+0.002*[#   1]+0.002*[#   5]
    |psi|^2 = 0.994

 k =   0.7083333333  0.1250000000  0.7916666667
==== e(   1) =    -2.56772 eV ==== 
     psi = 0.325*[#   1]+0.325*[#   5]+0.057*[#   2]+0.057*[#   3]+0.057*[#   4]
          +0.057*[#   6]+0.057*[#   7]+0.057*[#   8]
    |psi|^2 = 0.995
==== e(   2) =    -0.89814 eV ==== 
     psi = 0.253*[#   1]+0.253*[#   5]+0.081*[#   2]+0.081*[#   3]+0.081*[#   4]
          +0.081*[#   6]+0.081*[#   7]+0.081*[#   8]
    |psi|^2 = 0.993
==== e(   3) =     1.95478 eV ==== 
     psi = 0.161*[#   2]+0.161*[#   3]+0.161*[#   4]+0.161*[#   6]+0.161*[#   7]
          +0.161*[#   8]+0.013*[#   1]+0.013*[#   5]
    |psi|^2 = 0.993
==== e(   4) =     3.53721 eV ==== 
     psi = 0.165*[#   2]+0.165*[#   3]+0.165*[#   4]+0.165*[#   6]+0.165*[#   7]
          +0.165*[#   8]+0.002*[#   1]+0.002*[#   5]
    |psi|^2 = 0.993

 k =   0.6250000000  0.2083333333  0.7083333333
==== e(   1) =    -2.98741 eV ==== 
     psi = 0.349*[#   1]+0.349*[#   5]+0.050*[#   2]+0.050*[#   3]+0.050*[#   4]
          +0.050*[#   6]+0.050*[#   7]+0.050*[#   8]
    |psi|^2 = 0.996
==== e(   2) =    -0.75484 eV ==== 
     psi = 0.192*[#   1]+0.192*[#   5]+0.101*[#   2]+0.101*[#   3]+0.101*[#   4]
          +0.101*[#   6]+0.101*[#   7]+0.101*[#   8]
    |psi|^2 = 0.991
==== e(   3) =     2.36073 eV ==== 
     psi = 0.149*[#   2]+0.149*[#   3]+0.149*[#   4]+0.149*[#   6]+0.149*[#   7]
          +0.149*[#   8]+0.050*[#   1]+0.050*[#   5]
    |psi|^2 = 0.993
==== e(   4) =     3.93306 eV ==== 
     psi = 0.165*[#   2]+0.165*[#   3]+0.165*[#   4]+0.165*[#   6]+0.165*[#   7]
          +0.165*[#   8]+0.001*[#   1]+0.001*[#   5]
    |psi|^2 = 0.991

 k =   0.5416666667  0.2916666667  0.6250000000
==== e(   1) =    -3.33857 eV ==== 
     psi = 0.368*[#   1]+0.368*[#   5]+0.043*[#   2]+0.043*[#   3]+0.043*[#   4]
          +0.043*[#   6]+0.043*[#   7]+0.043*[#   8]
    |psi|^2 = 0.997
==== e(   2) =    -0.79205 eV ==== 
     psi = 0.149*[#   1]+0.149*[#   5]+0.115*[#   2]+0.115*[#   3]+0.115*[#   4]
          +0.115*[#   6]+0.115*[#   7]+0.115*[#   8]
    |psi|^2 = 0.988
==== e(   3) =     3.26940 eV ==== 
     psi = 0.143*[#   2]+0.143*[#   3]+0.143*[#   4]+0.143*[#   6]+0.143*[#   7]
          +0.143*[#   8]+0.066*[#   1]+0.066*[#   5]
    |psi|^2 = 0.991
==== e(   4) =     4.36756 eV ==== 
     psi = 0.165*[#   2]+0.165*[#   3]+0.165*[#   4]+0.165*[#   6]+0.165*[#   7]
          +0.165*[#   8]
    |psi|^2 = 0.989

 k =   0.4583333333  0.3750000000  0.5416666667
==== e(   1) =    -3.61542 eV ==== 
     psi = 0.377*[#   1]+0.377*[#   5]+0.040*[#   2]+0.040*[#   3]+0.040*[#   4]
          +0.040*[#   6]+0.040*[#   7]+0.040*[#   8]
    |psi|^2 = 0.997
==== e(   2) =    -0.75240 eV ==== 
     psi = 0.136*[#   1]+0.136*[#   5]+0.119*[#   2]+0.119*[#   3]+0.119*[#   4]
          +0.119*[#   6]+0.119*[#   7]+0.119*[#   8]
    |psi|^2 = 0.987
==== e(   3) =     4.28564 eV ==== 
     psi = 0.152*[#   2]+0.152*[#   3]+0.152*[#   4]+0.152*[#   6]+0.152*[#   7]
          +0.152*[#   8]+0.039*[#   1]+0.039*[#   5]
    |psi|^2 = 0.988
==== e(   4) =     4.67243 eV ==== 
     psi = 0.164*[#   2]+0.164*[#   3]+0.164*[#   4]+0.164*[#   6]+0.164*[#   7]
          +0.164*[#   8]
    |psi|^2 = 0.988

 k =  -0.0416666667 -0.9583333333  0.0416666667
==== e(   1) =    -2.10346 eV ==== 
     psi = 0.290*[#   1]+0.290*[#   5]+0.069*[#   2]+0.069*[#   3]+0.069*[#   4]
          +0.069*[#   6]+0.069*[#   7]+0.069*[#   8]
    |psi|^2 = 0.993
==== e(   2) =    -1.47606 eV ==== 
     psi = 0.282*[#   1]+0.282*[#   5]+0.071*[#   2]+0.071*[#   3]+0.071*[#   4]
          +0.071*[#   6]+0.071*[#   7]+0.071*[#   8]
    |psi|^2 = 0.993
==== e(   3) =     3.06358 eV ==== 
     psi = 0.165*[#   2]+0.165*[#   3]+0.165*[#   4]+0.165*[#   6]+0.165*[#   7]
          +0.165*[#   8]+0.002*[#   1]+0.002*[#   5]
    |psi|^2 = 0.994
==== e(   4) =     3.17166 eV ==== 
     psi = 0.166*[#   2]+0.166*[#   3]+0.166*[#   4]+0.166*[#   6]+0.166*[#   7]
          +0.166*[#   8]
    |psi|^2 = 0.994

 k =  -0.1250000000 -0.8750000000 -0.0416666667
==== e(   1) =    -2.66016 eV ==== 
     psi = 0.300*[#   1]+0.300*[#   5]+0.066*[#   2]+0.066*[#   3]+0.066*[#   4]
          +0.066*[#   6]+0.066*[#   7]+0.066*[#   8]
    |psi|^2 = 0.994
==== e(   2) =    -0.82467 eV ==== 
     psi = 0.276*[#   1]+0.276*[#   5]+0.073*[#   2]+0.073*[#   3]+0.073*[#   4]
          +0.073*[#   6]+0.073*[#   7]+0.073*[#   8]
    |psi|^2 = 0.993
==== e(   3) =     2.89231 eV ==== 
     psi = 0.163*[#   2]+0.163*[#   3]+0.163*[#   4]+0.163*[#   6]+0.163*[#   7]
          +0.163*[#   8]+0.007*[#   1]+0.007*[#   5]
    |psi|^2 = 0.993
==== e(   4) =     3.17297 eV ==== 
     psi = 0.165*[#   2]+0.165*[#   3]+0.165*[#   4]+0.165*[#   6]+0.165*[#   7]
          +0.165*[#   8]+0.002*[#   1]+0.002*[#   5]
    |psi|^2 = 0.994

 k =  -0.2083333333 -0.7916666667 -0.1250000000
==== e(   1) =    -3.09367 eV ==== 
     psi = 0.314*[#   1]+0.314*[#   5]+0.061*[#   2]+0.061*[#   3]+0.061*[#   4]
          +0.061*[#   6]+0.061*[#   7]+0.061*[#   8]
    |psi|^2 = 0.995
==== e(   2) =    -0.29838 eV ==== 
     psi = 0.261*[#   1]+0.261*[#   5]+0.078*[#   2]+0.078*[#   3]+0.078*[#   4]
          +0.078*[#   6]+0.078*[#   7]+0.078*[#   8]
    |psi|^2 = 0.992
==== e(   3) =     2.51649 eV ==== 
     psi = 0.160*[#   2]+0.160*[#   3]+0.160*[#   4]+0.160*[#   6]+0.160*[#   7]
          +0.160*[#   8]+0.017*[#   1]+0.017*[#   5]
    |psi|^2 = 0.993
==== e(   4) =     3.42914 eV ==== 
     psi = 0.165*[#   2]+0.165*[#   3]+0.165*[#   4]+0.165*[#   6]+0.165*[#   7]
          +0.165*[#   8]+0.001*[#   1]+0.001*[#   5]
    |psi|^2 = 0.993

 k =  -0.2916666667 -0.7083333333 -0.2083333333
==== e(   1) =    -3.39299 eV ==== 
     psi = 0.334*[#   1]+0.334*[#   5]+0.055*[#   2]+0.055*[#   3]+0.055*[#   4]
          +0.055*[#   6]+0.055*[#   7]+0.055*[#   8]
    |psi|^2 = 0.995
==== e(   2) =    -0.20281 eV ==== 
     psi = 0.212*[#   1]+0.212*[#   5]+0.095*[#   2]+0.095*[#   3]+0.095*[#   4]
          +0.095*[#   6]+0.095*[#   7]+0.095*[#   8]
    |psi|^2 = 0.991
==== e(   3) =     2.69558 eV ==== 
     psi = 0.149*[#   2]+0.149*[#   3]+0.149*[#   4]+0.149*[#   6]+0.149*[#   7]
          +0.149*[#   8]+0.049*[#   1]+0.049*[#   5]
    |psi|^2 = 0.992
==== e(   4) =     3.81352 eV ==== 
     psi = 0.165*[#   2]+0.165*[#   3]+0.165*[#   4]+0.165*[#   6]+0.165*[#   7]
          +0.165*[#   8]
    |psi|^2 = 0.991

 k =  -0.3750000000 -0.6250000000 -0.2916666667
==== e(   1) =    -3.56203 eV ==== 
     psi = 0.357*[#   1]+0.357*[#   5]+0.047*[#   2]+0.047*[#   3]+0.047*[#   4]
          +0.047*[#   6]+0.047*[#   7]+0.047*[#   8]
    |psi|^2 = 0.996
==== e(   2) =    -0.46824 eV ==== 
     psi = 0.163*[#   1]+0.163*[#   5]+0.111*[#   2]+0.111*[#   3]+0.111*[#   4]
          +0.111*[#   6]+0.111*[#   7]+0.111*[#   8]
    |psi|^2 = 0.989
==== e(   3) =     3.43691 eV ==== 
     psi = 0.143*[#   2]+0.143*[#   3]+0.143*[#   4]+0.143*[#   6]+0.143*[#   7]
          +0.143*[#   8]+0.067*[#   1]+0.067*[#   5]
    |psi|^2 = 0.990
==== e(   4) =     4.27251 eV ==== 
     psi = 0.165*[#   2]+0.165*[#   3]+0.165*[#   4]+0.165*[#   6]+0.165*[#   7]
          +0.165*[#   8]
    |psi|^2 = 0.989

 k =  -0.0416666667 -0.7916666667  0.0416666667
==== e(   1) =    -3.24115 eV ==== 
     psi = 0.307*[#   1]+0.307*[#   5]+0.063*[#   2]+0.063*[#   3]+0.063*[#   4]
          +0.063*[#   6]+0.063*[#   7]+0.063*[#   8]
    |psi|^2 = 0.994
==== e(   2) =    -0.13365 eV ==== 
     psi = 0.266*[#   1]+0.266*[#   5]+0.077*[#   2]+0.077*[#   3]+0.077*[#   4]
          +0.077*[#   6]+0.077*[#   7]+0.077*[#   8]
    |psi|^2 = 0.992
==== e(   3) =     3.23392 eV ==== 
     psi = 0.165*[#   2]+0.165*[#   3]+0.165*[#   4]+0.165*[#   6]+0.165*[#   7]
          +0.165*[#   8]+0.003*[#   1]+0.003*[#   5]
    |psi|^2 = 0.994
==== e(   4) =     3.33215 eV ==== 
     psi = 0.166*[#   2]+0.166*[#   3]+0.166*[#   4]+0.166*[#   6]+0.166*[#   7]
          +0.166*[#   8]
    |psi|^2 = 0.994

 k =  -0.1250000000 -0.7083333333 -0.0416666667
==== e(   1) =    -3.69769 eV ==== 
     psi = 0.318*[#   1]+0.318*[#   5]+0.060*[#   2]+0.060*[#   3]+0.060*[#   4]
          +0.060*[#   6]+0.060*[#   7]+0.060*[#   8]
    |psi|^2 = 0.994
==== e(   2) =     0.50103 eV ==== 
     psi = 0.255*[#   1]+0.255*[#   5]+0.080*[#   2]+0.080*[#   3]+0.080*[#   4]
          +0.080*[#   6]+0.080*[#   7]+0.080*[#   8]
    |psi|^2 = 0.991
==== e(   3) =     3.19218 eV ==== 
     psi = 0.161*[#   2]+0.161*[#   3]+0.161*[#   4]+0.161*[#   6]+0.161*[#   7]
          +0.161*[#   8]+0.013*[#   1]+0.013*[#   5]
    |psi|^2 = 0.992
==== e(   4) =     3.48248 eV ==== 
     psi = 0.165*[#   2]+0.165*[#   3]+0.165*[#   4]+0.165*[#   6]+0.165*[#   7]
          +0.165*[#   8]
    |psi|^2 = 0.993

 k =  -0.2083333333 -0.6250000000 -0.1250000000
==== e(   1) =    -4.00372 eV ==== 
     psi = 0.333*[#   1]+0.333*[#   5]+0.055*[#   2]+0.055*[#   3]+0.055*[#   4]
          +0.055*[#   6]+0.055*[#   7]+0.055*[#   8]
    |psi|^2 = 0.995
==== e(   2) =     0.77424 eV ==== 
     psi = 0.221*[#   1]+0.221*[#   5]+0.091*[#   2]+0.091*[#   3]+0.091*[#   4]
          +0.091*[#   6]+0.091*[#   7]+0.091*[#   8]
    |psi|^2 = 0.990
==== e(   3) =     3.16972 eV ==== 
     psi = 0.152*[#   2]+0.152*[#   3]+0.152*[#   4]+0.152*[#   6]+0.152*[#   7]
          +0.152*[#   8]+0.040*[#   1]+0.040*[#   5]
    |psi|^2 = 0.991
==== e(   4) =     3.85446 eV ==== 
     psi = 0.165*[#   2]+0.165*[#   3]+0.165*[#   4]+0.165*[#   6]+0.165*[#   7]
          +0.165*[#   8]+0.002*[#   1]+0.002*[#   5]
    |psi|^2 = 0.991

 k =  -0.2916666667 -0.5416666667 -0.2083333333
==== e(   1) =    -4.15114 eV ==== 
     psi = 0.348*[#   1]+0.348*[#   5]+0.050*[#   2]+0.050*[#   3]+0.050*[#   4]
          +0.050*[#   6]+0.050*[#   7]+0.050*[#   8]
    |psi|^2 = 0.995
==== e(   2) =     0.52539 eV ==== 
     psi = 0.177*[#   1]+0.177*[#   5]+0.106*[#   2]+0.106*[#   3]+0.106*[#   4]
          +0.106*[#   6]+0.106*[#   7]+0.106*[#   8]
    |psi|^2 = 0.990
==== e(   3) =     3.68520 eV ==== 
     psi = 0.145*[#   2]+0.145*[#   3]+0.145*[#   4]+0.145*[#   6]+0.145*[#   7]
          +0.145*[#   8]+0.060*[#   1]+0.060*[#   5]
    |psi|^2 = 0.989
==== e(   4) =     4.34313 eV ==== 
     psi = 0.163*[#   2]+0.163*[#   3]+0.163*[#   4]+0.163*[#   6]+0.163*[#   7]
          +0.163*[#   8]+0.006*[#   1]+0.006*[#   5]
    |psi|^2 = 0.988

 k =  -0.0416666667 -0.6250000000  0.0416666667
==== e(   1) =    -4.19657 eV ==== 
     psi = 0.331*[#   1]+0.331*[#   5]+0.056*[#   2]+0.056*[#   3]+0.056*[#   4]
          +0.056*[#   6]+0.056*[#   7]+0.056*[#   8]
    |psi|^2 = 0.995
==== e(   2) =     1.28227 eV ==== 
     psi = 0.243*[#   1]+0.243*[#   5]+0.084*[#   2]+0.084*[#   3]+0.084*[#   4]
          +0.084*[#   6]+0.084*[#   7]+0.084*[#   8]
    |psi|^2 = 0.989
==== e(   3) =     3.62833 eV ==== 
     psi = 0.164*[#   2]+0.164*[#   3]+0.164*[#   4]+0.164*[#   6]+0.164*[#   7]
          +0.164*[#   8]+0.004*[#   1]+0.004*[#   5]
    |psi|^2 = 0.992
==== e(   4) =     3.70110 eV ==== 
     psi = 0.165*[#   2]+0.165*[#   3]+0.165*[#   4]+0.165*[#   6]+0.165*[#   7]
          +0.165*[#   8]
    |psi|^2 = 0.992

 k =  -0.1250000000 -0.5416666667 -0.0416666667
==== e(   1) =    -4.54543 eV ==== 
     psi = 0.347*[#   1]+0.347*[#   5]+0.050*[#   2]+0.050*[#   3]+0.050*[#   4]
          +0.050*[#   6]+0.050*[#   7]+0.050*[#   8]
    |psi|^2 = 0.995
==== e(   2) =     1.82344 eV ==== 
     psi = 0.220*[#   1]+0.220*[#   5]+0.091*[#   2]+0.091*[#   3]+0.091*[#   4]
          +0.091*[#   6]+0.091*[#   7]+0.091*[#   8]
    |psi|^2 = 0.988
==== e(   3) =     3.70567 eV ==== 
     psi = 0.159*[#   2]+0.159*[#   3]+0.159*[#   4]+0.159*[#   6]+0.159*[#   7]
          +0.159*[#   8]+0.018*[#   1]+0.018*[#   5]
    |psi|^2 = 0.990
==== e(   4) =     4.05390 eV ==== 
     psi = 0.163*[#   2]+0.163*[#   3]+0.163*[#   4]+0.163*[#   6]+0.163*[#   7]
          +0.163*[#   8]+0.005*[#   1]+0.005*[#   5]
    |psi|^2 = 0.990

 k =  -0.2083333333 -0.4583333333 -0.1250000000
==== e(   1) =    -4.72909 eV ==== 
     psi = 0.361*[#   1]+0.361*[#   5]+0.045*[#   2]+0.045*[#   3]+0.045*[#   4]
          +0.045*[#   6]+0.045*[#   7]+0.045*[#   8]
    |psi|^2 = 0.995
==== e(   2) =     1.77873 eV ==== 
     psi = 0.176*[#   1]+0.176*[#   5]+0.106*[#   2]+0.106*[#   3]+0.106*[#   4]
          +0.106*[#   6]+0.106*[#   7]+0.106*[#   8]
    |psi|^2 = 0.988
==== e(   3) =     3.98976 eV ==== 
     psi = 0.151*[#   2]+0.151*[#   3]+0.151*[#   4]+0.151*[#   6]+0.151*[#   7]
          +0.151*[#   8]+0.041*[#   1]+0.041*[#   5]
    |psi|^2 = 0.987
==== e(   4) =     4.57528 eV ==== 
     psi = 0.159*[#   2]+0.159*[#   3]+0.159*[#   4]+0.159*[#   6]+0.159*[#   7]
          +0.159*[#   8]+0.015*[#   1]+0.015*[#   5]
    |psi|^2 = 0.986

 k =  -0.0416666667 -0.4583333333  0.0416666667
==== e(   1) =    -4.94569 eV ==== 
     psi = 0.368*[#   1]+0.368*[#   5]+0.043*[#   2]+0.043*[#   3]+0.043*[#   4]
          +0.043*[#   6]+0.043*[#   7]+0.043*[#   8]
    |psi|^2 = 0.995
==== e(   2) =     2.71100 eV ==== 
     psi = 0.206*[#   1]+0.206*[#   5]+0.095*[#   2]+0.095*[#   3]+0.095*[#   4]
          +0.095*[#   6]+0.095*[#   7]+0.095*[#   8]
    |psi|^2 = 0.985
==== e(   3) =     4.23713 eV ==== 
     psi = 0.162*[#   2]+0.162*[#   3]+0.162*[#   4]+0.162*[#   6]+0.162*[#   7]
          +0.162*[#   8]+0.009*[#   1]+0.009*[#   5]
    |psi|^2 = 0.988
==== e(   4) =     4.26175 eV ==== 
     psi = 0.165*[#   2]+0.165*[#   3]+0.165*[#   4]+0.165*[#   6]+0.165*[#   7]
          +0.165*[#   8]
    |psi|^2 = 0.988

 k =  -0.1250000000 -0.3750000000 -0.0416666667
==== e(   1) =    -5.18123 eV ==== 
     psi = 0.389*[#   1]+0.389*[#   5]+0.036*[#   2]+0.036*[#   3]+0.036*[#   4]
          +0.036*[#   6]+0.036*[#   7]+0.036*[#   8]
    |psi|^2 = 0.996
==== e(   2) =     3.07878 eV ==== 
     psi = 0.167*[#   1]+0.167*[#   5]+0.108*[#   2]+0.108*[#   3]+0.108*[#   4]
          +0.108*[#   6]+0.108*[#   7]+0.108*[#   8]
    |psi|^2 = 0.984
==== e(   3) =     4.38592 eV ==== 
     psi = 0.158*[#   2]+0.158*[#   3]+0.158*[#   4]+0.158*[#   6]+0.158*[#   7]
          +0.158*[#   8]+0.017*[#   1]+0.017*[#   5]
    |psi|^2 = 0.985
==== e(   4) =     4.86176 eV ==== 
     psi = 0.158*[#   2]+0.158*[#   3]+0.158*[#   4]+0.158*[#   6]+0.158*[#   7]
          +0.158*[#   8]+0.016*[#   1]+0.016*[#   5]
    |psi|^2 = 0.983

 k =  -0.0416666667 -0.2916666667  0.0416666667
==== e(   1) =    -5.47288 eV ==== 
     psi = 0.422*[#   1]+0.422*[#   5]+0.025*[#   2]+0.025*[#   3]+0.025*[#   4]
          +0.025*[#   6]+0.025*[#   7]+0.025*[#   8]
    |psi|^2 = 0.996
==== e(   2) =     4.07842 eV ==== 
     psi = 0.145*[#   1]+0.145*[#   5]+0.115*[#   2]+0.115*[#   3]+0.115*[#   4]
          +0.115*[#   6]+0.115*[#   7]+0.115*[#   8]
    |psi|^2 = 0.979
==== e(   3) =     4.97021 eV ==== 
     psi = 0.163*[#   2]+0.163*[#   3]+0.163*[#   4]+0.163*[#   6]+0.163*[#   7]
          +0.163*[#   8]
    |psi|^2 = 0.980
==== e(   4) =     5.02517 eV ==== 
     psi = 0.158*[#   2]+0.158*[#   3]+0.158*[#   4]+0.158*[#   6]+0.158*[#   7]
          +0.158*[#   8]+0.016*[#   1]+0.016*[#   5]
    |psi|^2 = 0.979

 k =  -0.1250000000  0.1250000000  0.1250000000
==== e(   1) =    -5.65064 eV ==== 
     psi = 0.452*[#   1]+0.452*[#   5]+0.015*[#   2]+0.015*[#   3]+0.015*[#   4]
          +0.015*[#   6]+0.015*[#   7]+0.015*[#   8]
    |psi|^2 = 0.996
==== e(   2) =     4.34658 eV ==== 
     psi = 0.132*[#   2]+0.132*[#   3]+0.132*[#   4]+0.132*[#   6]+0.132*[#   7]
          +0.132*[#   8]+0.094*[#   1]+0.094*[#   5]
    |psi|^2 = 0.978
==== e(   3) =     5.65756 eV ==== 
     psi = 0.162*[#   2]+0.162*[#   3]+0.162*[#   4]+0.162*[#   6]+0.162*[#   7]
          +0.162*[#   8]
    |psi|^2 = 0.970
==== e(   4) =     5.65756 eV ==== 
     psi = 0.162*[#   2]+0.162*[#   3]+0.162*[#   4]+0.162*[#   6]+0.162*[#   7]
          +0.162*[#   8]
    |psi|^2 = 0.970

 k =  -0.2083333333  0.2083333333  0.0416666667
==== e(   1) =    -5.47462 eV ==== 
     psi = 0.424*[#   1]+0.424*[#   5]+0.025*[#   2]+0.025*[#   3]+0.025*[#   4]
          +0.025*[#   6]+0.025*[#   7]+0.025*[#   8]
    |psi|^2 = 0.996
==== e(   2) =     3.72271 eV ==== 
     psi = 0.125*[#   1]+0.125*[#   5]+0.122*[#   2]+0.122*[#   3]+0.122*[#   4]
          +0.122*[#   6]+0.122*[#   7]+0.122*[#   8]
    |psi|^2 = 0.981
==== e(   3) =     4.80541 eV ==== 
     psi = 0.157*[#   2]+0.157*[#   3]+0.157*[#   4]+0.157*[#   6]+0.157*[#   7]
          +0.157*[#   8]+0.020*[#   1]+0.020*[#   5]
    |psi|^2 = 0.980
==== e(   4) =     5.72780 eV ==== 
     psi = 0.162*[#   2]+0.162*[#   3]+0.162*[#   4]+0.162*[#   6]+0.162*[#   7]
          +0.162*[#   8]
    |psi|^2 = 0.972

 k =  -0.2916666667  0.2916666667 -0.0416666667
==== e(   1) =    -5.12820 eV ==== 
     psi = 0.387*[#   1]+0.387*[#   5]+0.037*[#   2]+0.037*[#   3]+0.037*[#   4]
          +0.037*[#   6]+0.037*[#   7]+0.037*[#   8]
    |psi|^2 = 0.996
==== e(   2) =     2.67444 eV ==== 
     psi = 0.156*[#   1]+0.156*[#   5]+0.112*[#   2]+0.112*[#   3]+0.112*[#   4]
          +0.112*[#   6]+0.112*[#   7]+0.112*[#   8]
    |psi|^2 = 0.986
==== e(   3) =     4.03711 eV ==== 
     psi = 0.152*[#   2]+0.152*[#   3]+0.152*[#   4]+0.152*[#   6]+0.152*[#   7]
          +0.152*[#   8]+0.036*[#   1]+0.036*[#   5]
    |psi|^2 = 0.985
==== e(   4) =     5.51675 eV ==== 
     psi = 0.163*[#   2]+0.163*[#   3]+0.163*[#   4]+0.163*[#   6]+0.163*[#   7]
          +0.163*[#   8]
    |psi|^2 = 0.979

 k =  -0.3750000000  0.3750000000 -0.1250000000
==== e(   1) =    -4.62898 eV ==== 
     psi = 0.361*[#   1]+0.361*[#   5]+0.045*[#   2]+0.045*[#   3]+0.045*[#   4]
          +0.045*[#   6]+0.045*[#   7]+0.045*[#   8]
    |psi|^2 = 0.995
==== e(   2) =     1.36143 eV ==== 
     psi = 0.168*[#   1]+0.168*[#   5]+0.109*[#   2]+0.109*[#   3]+0.109*[#   4]
          +0.109*[#   6]+0.109*[#   7]+0.109*[#   8]
    |psi|^2 = 0.989
==== e(   3) =     3.67875 eV ==== 
     psi = 0.148*[#   2]+0.148*[#   3]+0.148*[#   4]+0.148*[#   6]+0.148*[#   7]
          +0.148*[#   8]+0.049*[#   1]+0.049*[#   5]
    |psi|^2 = 0.987
==== e(   4) =     5.17861 eV ==== 
     psi = 0.164*[#   2]+0.164*[#   3]+0.164*[#   4]+0.164*[#   6]+0.164*[#   7]
          +0.164*[#   8]
    |psi|^2 = 0.984

 k =  -0.4583333333  0.4583333333 -0.2083333333
==== e(   1) =    -4.02738 eV ==== 
     psi = 0.354*[#   1]+0.354*[#   5]+0.048*[#   2]+0.048*[#   3]+0.048*[#   4]
          +0.048*[#   6]+0.048*[#   7]+0.048*[#   8]
    |psi|^2 = 0.996
==== e(   2) =     0.14739 eV ==== 
     psi = 0.165*[#   1]+0.165*[#   5]+0.110*[#   2]+0.110*[#   3]+0.110*[#   4]
          +0.110*[#   6]+0.110*[#   7]+0.110*[#   8]
    |psi|^2 = 0.989
==== e(   3) =     3.53489 eV ==== 
     psi = 0.146*[#   2]+0.146*[#   3]+0.146*[#   4]+0.146*[#   6]+0.146*[#   7]
          +0.146*[#   8]+0.056*[#   1]+0.056*[#   5]
    |psi|^2 = 0.989
==== e(   4) =     4.84344 eV ==== 
     psi = 0.165*[#   2]+0.165*[#   3]+0.165*[#   4]+0.165*[#   6]+0.165*[#   7]
          +0.165*[#   8]
    |psi|^2 = 0.987

 k =   0.4583333333 -0.4583333333  0.7083333333
==== e(   1) =    -3.49934 eV ==== 
     psi = 0.369*[#   1]+0.369*[#   5]+0.043*[#   2]+0.043*[#   3]+0.043*[#   4]
          +0.043*[#   6]+0.043*[#   7]+0.043*[#   8]
    |psi|^2 = 0.997
==== e(   2) =    -0.70043 eV ==== 
     psi = 0.146*[#   1]+0.146*[#   5]+0.116*[#   2]+0.116*[#   3]+0.116*[#   4]
          +0.116*[#   6]+0.116*[#   7]+0.116*[#   8]
    |psi|^2 = 0.988
==== e(   3) =     3.54823 eV ==== 
     psi = 0.145*[#   2]+0.145*[#   3]+0.145*[#   4]+0.145*[#   6]+0.145*[#   7]
          +0.145*[#   8]+0.061*[#   1]+0.061*[#   5]
    |psi|^2 = 0.990
==== e(   4) =     4.57647 eV ==== 
     psi = 0.165*[#   2]+0.165*[#   3]+0.165*[#   4]+0.165*[#   6]+0.165*[#   7]
          +0.165*[#   8]
    |psi|^2 = 0.988

 k =   0.3750000000 -0.3750000000  0.6250000000
==== e(   1) =    -3.49636 eV ==== 
     psi = 0.368*[#   1]+0.368*[#   5]+0.043*[#   2]+0.043*[#   3]+0.043*[#   4]
          +0.043*[#   6]+0.043*[#   7]+0.043*[#   8]
    |psi|^2 = 0.997
==== e(   2) =    -0.70593 eV ==== 
     psi = 0.147*[#   1]+0.147*[#   5]+0.116*[#   2]+0.116*[#   3]+0.116*[#   4]
          +0.116*[#   6]+0.116*[#   7]+0.116*[#   8]
    |psi|^2 = 0.988
==== e(   3) =     3.69733 eV ==== 
     psi = 0.144*[#   2]+0.144*[#   3]+0.144*[#   4]+0.144*[#   6]+0.144*[#   7]
          +0.144*[#   8]+0.063*[#   1]+0.063*[#   5]
    |psi|^2 = 0.990
==== e(   4) =     4.41086 eV ==== 
     psi = 0.165*[#   2]+0.165*[#   3]+0.165*[#   4]+0.165*[#   6]+0.165*[#   7]
          +0.165*[#   8]
    |psi|^2 = 0.989

 k =   0.2916666667 -0.2916666667  0.5416666667
==== e(   1) =    -4.02249 eV ==== 
     psi = 0.353*[#   1]+0.353*[#   5]+0.048*[#   2]+0.048*[#   3]+0.048*[#   4]
          +0.048*[#   6]+0.048*[#   7]+0.048*[#   8]
    |psi|^2 = 0.996
==== e(   2) =     0.13644 eV ==== 
     psi = 0.167*[#   1]+0.167*[#   5]+0.109*[#   2]+0.109*[#   3]+0.109*[#   4]
          +0.109*[#   6]+0.109*[#   7]+0.109*[#   8]
    |psi|^2 = 0.989
==== e(   3) =     3.96342 eV ==== 
     psi = 0.143*[#   2]+0.143*[#   3]+0.143*[#   4]+0.143*[#   6]+0.143*[#   7]
          +0.143*[#   8]+0.064*[#   1]+0.064*[#   5]
    |psi|^2 = 0.989
==== e(   4) =     4.36472 eV ==== 
     psi = 0.165*[#   2]+0.165*[#   3]+0.165*[#   4]+0.165*[#   6]+0.165*[#   7]
          +0.165*[#   8]
    |psi|^2 = 0.988

 k =   0.2083333333 -0.2083333333  0.4583333333
==== e(   1) =    -4.62482 eV ==== 
     psi = 0.360*[#   1]+0.360*[#   5]+0.046*[#   2]+0.046*[#   3]+0.046*[#   4]
          +0.046*[#   6]+0.046*[#   7]+0.046*[#   8]
    |psi|^2 = 0.995
==== e(   2) =     1.35727 eV ==== 
     psi = 0.169*[#   1]+0.169*[#   5]+0.108*[#   2]+0.108*[#   3]+0.108*[#   4]
          +0.108*[#   6]+0.108*[#   7]+0.108*[#   8]
    |psi|^2 = 0.988
==== e(   3) =     4.32045 eV ==== 
     psi = 0.144*[#   2]+0.144*[#   3]+0.144*[#   4]+0.144*[#   6]+0.144*[#   7]
          +0.144*[#   8]+0.060*[#   1]+0.060*[#   5]
    |psi|^2 = 0.986
==== e(   4) =     4.44644 eV ==== 
     psi = 0.164*[#   2]+0.164*[#   3]+0.164*[#   4]+0.164*[#   6]+0.164*[#   7]
          +0.164*[#   8]
    |psi|^2 = 0.987

 k =   0.1250000000 -0.1250000000  0.3750000000
==== e(   1) =    -5.12524 eV ==== 
     psi = 0.385*[#   1]+0.385*[#   5]+0.037*[#   2]+0.037*[#   3]+0.037*[#   4]
          +0.037*[#   6]+0.037*[#   7]+0.037*[#   8]
    |psi|^2 = 0.996
==== e(   2) =     2.73214 eV ==== 
     psi = 0.158*[#   1]+0.158*[#   5]+0.112*[#   2]+0.112*[#   3]+0.112*[#   4]
          +0.112*[#   6]+0.112*[#   7]+0.112*[#   8]
    |psi|^2 = 0.985
==== e(   3) =     4.65416 eV ==== 
     psi = 0.164*[#   2]+0.164*[#   3]+0.164*[#   4]+0.164*[#   6]+0.164*[#   7]
          +0.164*[#   8]
    |psi|^2 = 0.984
==== e(   4) =     4.71517 eV ==== 
     psi = 0.148*[#   2]+0.148*[#   3]+0.148*[#   4]+0.148*[#   6]+0.148*[#   7]
          +0.148*[#   8]+0.046*[#   1]+0.046*[#   5]
    |psi|^2 = 0.983

 k =  -0.1250000000  0.2916666667  0.1250000000
==== e(   1) =    -5.35783 eV ==== 
     psi = 0.409*[#   1]+0.409*[#   5]+0.030*[#   2]+0.030*[#   3]+0.030*[#   4]
          +0.030*[#   6]+0.030*[#   7]+0.030*[#   8]
    |psi|^2 = 0.996
==== e(   2) =     3.27801 eV ==== 
     psi = 0.134*[#   1]+0.134*[#   5]+0.119*[#   2]+0.119*[#   3]+0.119*[#   4]
          +0.119*[#   6]+0.119*[#   7]+0.119*[#   8]
    |psi|^2 = 0.983
==== e(   3) =     5.00295 eV ==== 
     psi = 0.163*[#   2]+0.163*[#   3]+0.163*[#   4]+0.163*[#   6]+0.163*[#   7]
          +0.163*[#   8]
    |psi|^2 = 0.980
==== e(   4) =     5.19576 eV ==== 
     psi = 0.152*[#   2]+0.152*[#   3]+0.152*[#   4]+0.152*[#   6]+0.152*[#   7]
          +0.152*[#   8]+0.034*[#   1]+0.034*[#   5]
    |psi|^2 = 0.978

 k =  -0.2083333333  0.3750000000  0.0416666667
==== e(   1) =    -5.06861 eV ==== 
     psi = 0.381*[#   1]+0.381*[#   5]+0.039*[#   2]+0.039*[#   3]+0.039*[#   4]
          +0.039*[#   6]+0.039*[#   7]+0.039*[#   8]
    |psi|^2 = 0.996
==== e(   2) =     2.63733 eV ==== 
     psi = 0.166*[#   1]+0.166*[#   5]+0.109*[#   2]+0.109*[#   3]+0.109*[#   4]
          +0.109*[#   6]+0.109*[#   7]+0.109*[#   8]
    |psi|^2 = 0.986
==== e(   3) =     4.04168 eV ==== 
     psi = 0.154*[#   2]+0.154*[#   3]+0.154*[#   4]+0.154*[#   6]+0.154*[#   7]
          +0.154*[#   8]+0.031*[#   1]+0.031*[#   5]
    |psi|^2 = 0.986
==== e(   4) =     5.12740 eV ==== 
     psi = 0.160*[#   2]+0.160*[#   3]+0.160*[#   4]+0.160*[#   6]+0.160*[#   7]
          +0.160*[#   8]+0.012*[#   1]+0.012*[#   5]
    |psi|^2 = 0.982

 k =  -0.2916666667  0.4583333333 -0.0416666667
==== e(   1) =    -4.61932 eV ==== 
     psi = 0.357*[#   1]+0.357*[#   5]+0.047*[#   2]+0.047*[#   3]+0.047*[#   4]
          +0.047*[#   6]+0.047*[#   7]+0.047*[#   8]
    |psi|^2 = 0.995
==== e(   2) =     1.67555 eV ==== 
     psi = 0.189*[#   1]+0.189*[#   5]+0.102*[#   2]+0.102*[#   3]+0.102*[#   4]
          +0.102*[#   6]+0.102*[#   7]+0.102*[#   8]
    |psi|^2 = 0.989
==== e(   3) =     3.31446 eV ==== 
     psi = 0.151*[#   2]+0.151*[#   3]+0.151*[#   4]+0.151*[#   6]+0.151*[#   7]
          +0.151*[#   8]+0.041*[#   1]+0.041*[#   5]
    |psi|^2 = 0.989
==== e(   4) =     4.85958 eV ==== 
     psi = 0.161*[#   2]+0.161*[#   3]+0.161*[#   4]+0.161*[#   6]+0.161*[#   7]
          +0.161*[#   8]+0.009*[#   1]+0.009*[#   5]
    |psi|^2 = 0.985

 k =  -0.3750000000  0.5416666667 -0.1250000000
==== e(   1) =    -4.04363 eV ==== 
     psi = 0.344*[#   1]+0.344*[#   5]+0.051*[#   2]+0.051*[#   3]+0.051*[#   4]
          +0.051*[#   6]+0.051*[#   7]+0.051*[#   8]
    |psi|^2 = 0.995
==== e(   2) =     0.53494 eV ==== 
     psi = 0.189*[#   1]+0.189*[#   5]+0.102*[#   2]+0.102*[#   3]+0.102*[#   4]
          +0.102*[#   6]+0.102*[#   7]+0.102*[#   8]
    |psi|^2 = 0.990
==== e(   3) =     2.99697 eV ==== 
     psi = 0.147*[#   2]+0.147*[#   3]+0.147*[#   4]+0.147*[#   6]+0.147*[#   7]
          +0.147*[#   8]+0.055*[#   1]+0.055*[#   5]
    |psi|^2 = 0.990
==== e(   4) =     4.51429 eV ==== 
     psi = 0.163*[#   2]+0.163*[#   3]+0.163*[#   4]+0.163*[#   6]+0.163*[#   7]
          +0.163*[#   8]+0.006*[#   1]+0.006*[#   5]
    |psi|^2 = 0.987

 k =   0.5416666667 -0.3750000000  0.7916666667
==== e(   1) =    -3.45256 eV ==== 
     psi = 0.351*[#   1]+0.351*[#   5]+0.049*[#   2]+0.049*[#   3]+0.049*[#   4]
          +0.049*[#   6]+0.049*[#   7]+0.049*[#   8]
    |psi|^2 = 0.996
==== e(   2) =    -0.43148 eV ==== 
     psi = 0.174*[#   1]+0.174*[#   5]+0.107*[#   2]+0.107*[#   3]+0.107*[#   4]
          +0.107*[#   6]+0.107*[#   7]+0.107*[#   8]
    |psi|^2 = 0.990
==== e(   3) =     2.90161 eV ==== 
     psi = 0.144*[#   2]+0.144*[#   3]+0.144*[#   4]+0.144*[#   6]+0.144*[#   7]
          +0.144*[#   8]+0.064*[#   1]+0.064*[#   5]
    |psi|^2 = 0.991
==== e(   4) =     4.23490 eV ==== 
     psi = 0.164*[#   2]+0.164*[#   3]+0.164*[#   4]+0.164*[#   6]+0.164*[#   7]
          +0.164*[#   8]+0.003*[#   1]+0.003*[#   5]
    |psi|^2 = 0.989

 k =   0.4583333333 -0.2916666667  0.7083333333
==== e(   1) =    -3.22031 eV ==== 
     psi = 0.361*[#   1]+0.361*[#   5]+0.046*[#   2]+0.046*[#   3]+0.046*[#   4]
          +0.046*[#   6]+0.046*[#   7]+0.046*[#   8]
    |psi|^2 = 0.997
==== e(   2) =    -0.76377 eV ==== 
     psi = 0.163*[#   1]+0.163*[#   5]+0.111*[#   2]+0.111*[#   3]+0.111*[#   4]
          +0.111*[#   6]+0.111*[#   7]+0.111*[#   8]
    |psi|^2 = 0.989
==== e(   3) =     2.94146 eV ==== 
     psi = 0.143*[#   2]+0.143*[#   3]+0.143*[#   4]+0.143*[#   6]+0.143*[#   7]
          +0.143*[#   8]+0.067*[#   1]+0.067*[#   5]
    |psi|^2 = 0.992
==== e(   4) =     4.09841 eV ==== 
     psi = 0.165*[#   2]+0.165*[#   3]+0.165*[#   4]+0.165*[#   6]+0.165*[#   7]
          +0.165*[#   8]+0.001*[#   1]+0.001*[#   5]
    |psi|^2 = 0.989

 k =   0.3750000000 -0.2083333333  0.6250000000
==== e(   1) =    -3.63093 eV ==== 
     psi = 0.345*[#   1]+0.345*[#   5]+0.051*[#   2]+0.051*[#   3]+0.051*[#   4]
          +0.051*[#   6]+0.051*[#   7]+0.051*[#   8]
    |psi|^2 = 0.996
==== e(   2) =    -0.16167 eV ==== 
     psi = 0.182*[#   1]+0.182*[#   5]+0.104*[#   2]+0.104*[#   3]+0.104*[#   4]
          +0.104*[#   6]+0.104*[#   7]+0.104*[#   8]
    |psi|^2 = 0.990
==== e(   3) =     3.07447 eV ==== 
     psi = 0.144*[#   2]+0.144*[#   3]+0.144*[#   4]+0.144*[#   6]+0.144*[#   7]
          +0.144*[#   8]+0.064*[#   1]+0.064*[#   5]
    |psi|^2 = 0.991
==== e(   4) =     4.14584 eV ==== 
     psi = 0.164*[#   2]+0.164*[#   3]+0.164*[#   4]+0.164*[#   6]+0.164*[#   7]
          +0.164*[#   8]+0.003*[#   1]+0.003*[#   5]
    |psi|^2 = 0.989

 k =   0.2916666667 -0.1250000000  0.5416666667
==== e(   1) =    -4.24040 eV ==== 
     psi = 0.345*[#   1]+0.345*[#   5]+0.051*[#   2]+0.051*[#   3]+0.051*[#   4]
          +0.051*[#   6]+0.051*[#   7]+0.051*[#   8]
    |psi|^2 = 0.995
==== e(   2) =     0.90796 eV ==== 
     psi = 0.192*[#   1]+0.192*[#   5]+0.101*[#   2]+0.101*[#   3]+0.101*[#   4]
          +0.101*[#   6]+0.101*[#   7]+0.101*[#   8]
    |psi|^2 = 0.990
==== e(   3) =     3.30114 eV ==== 
     psi = 0.148*[#   2]+0.148*[#   3]+0.148*[#   4]+0.148*[#   6]+0.148*[#   7]
          +0.148*[#   8]+0.052*[#   1]+0.052*[#   5]
    |psi|^2 = 0.990
==== e(   4) =     4.36614 eV ==== 
     psi = 0.162*[#   2]+0.162*[#   3]+0.162*[#   4]+0.162*[#   6]+0.162*[#   7]
          +0.162*[#   8]+0.009*[#   1]+0.009*[#   5]
    |psi|^2 = 0.988

 k =   0.2083333333 -0.0416666667  0.4583333333
==== e(   1) =    -4.78166 eV ==== 
     psi = 0.362*[#   1]+0.362*[#   5]+0.045*[#   2]+0.045*[#   3]+0.045*[#   4]
          +0.045*[#   6]+0.045*[#   7]+0.045*[#   8]
    |psi|^2 = 0.995
==== e(   2) =     2.08926 eV ==== 
     psi = 0.189*[#   1]+0.189*[#   5]+0.102*[#   2]+0.102*[#   3]+0.102*[#   4]
          +0.102*[#   6]+0.102*[#   7]+0.102*[#   8]
    |psi|^2 = 0.987
==== e(   3) =     3.68947 eV ==== 
     psi = 0.154*[#   2]+0.154*[#   3]+0.154*[#   4]+0.154*[#   6]+0.154*[#   7]
          +0.154*[#   8]+0.032*[#   1]+0.032*[#   5]
    |psi|^2 = 0.988
==== e(   4) =     4.66935 eV ==== 
     psi = 0.160*[#   2]+0.160*[#   3]+0.160*[#   4]+0.160*[#   6]+0.160*[#   7]
          +0.160*[#   8]+0.013*[#   1]+0.013*[#   5]
    |psi|^2 = 0.986

 k =  -0.1250000000  0.4583333333  0.1250000000
==== e(   1) =    -4.83671 eV ==== 
     psi = 0.364*[#   1]+0.364*[#   5]+0.044*[#   2]+0.044*[#   3]+0.044*[#   4]
          +0.044*[#   6]+0.044*[#   7]+0.044*[#   8]
    |psi|^2 = 0.995
==== e(   2) =     2.17945 eV ==== 
     psi = 0.183*[#   1]+0.183*[#   5]+0.104*[#   2]+0.104*[#   3]+0.104*[#   4]
          +0.104*[#   6]+0.104*[#   7]+0.104*[#   8]
    |psi|^2 = 0.987
==== e(   3) =     4.21266 eV ==== 
     psi = 0.149*[#   2]+0.149*[#   3]+0.149*[#   4]+0.149*[#   6]+0.149*[#   7]
          +0.149*[#   8]+0.046*[#   1]+0.046*[#   5]
    |psi|^2 = 0.987
==== e(   4) =     4.32727 eV ==== 
     psi = 0.165*[#   2]+0.165*[#   3]+0.165*[#   4]+0.165*[#   6]+0.165*[#   7]
          +0.165*[#   8]
    |psi|^2 = 0.988

 k =  -0.2083333333  0.5416666667  0.0416666667
==== e(   1) =    -4.44090 eV ==== 
     psi = 0.345*[#   1]+0.345*[#   5]+0.051*[#   2]+0.051*[#   3]+0.051*[#   4]
          +0.051*[#   6]+0.051*[#   7]+0.051*[#   8]
    |psi|^2 = 0.995
==== e(   2) =     1.53165 eV ==== 
     psi = 0.212*[#   1]+0.212*[#   5]+0.094*[#   2]+0.094*[#   3]+0.094*[#   4]
          +0.094*[#   6]+0.094*[#   7]+0.094*[#   8]
    |psi|^2 = 0.989
==== e(   3) =     3.37618 eV ==== 
     psi = 0.155*[#   2]+0.155*[#   3]+0.155*[#   4]+0.155*[#   6]+0.155*[#   7]
          +0.155*[#   8]+0.031*[#   1]+0.031*[#   5]
    |psi|^2 = 0.990
==== e(   4) =     4.21310 eV ==== 
     psi = 0.162*[#   2]+0.162*[#   3]+0.162*[#   4]+0.162*[#   6]+0.162*[#   7]
          +0.162*[#   8]+0.009*[#   1]+0.009*[#   5]
    |psi|^2 = 0.989

 k =  -0.2916666667  0.6250000000 -0.0416666667
==== e(   1) =    -3.90371 eV ==== 
     psi = 0.332*[#   1]+0.332*[#   5]+0.055*[#   2]+0.055*[#   3]+0.055*[#   4]
          +0.055*[#   6]+0.055*[#   7]+0.055*[#   8]
    |psi|^2 = 0.995
==== e(   2) =     0.68725 eV ==== 
     psi = 0.229*[#   1]+0.229*[#   5]+0.089*[#   2]+0.089*[#   3]+0.089*[#   4]
          +0.089*[#   6]+0.089*[#   7]+0.089*[#   8]
    |psi|^2 = 0.991
==== e(   3) =     2.75929 eV ==== 
     psi = 0.154*[#   2]+0.154*[#   3]+0.154*[#   4]+0.154*[#   6]+0.154*[#   7]
          +0.154*[#   8]+0.034*[#   1]+0.034*[#   5]
    |psi|^2 = 0.991
==== e(   4) =     3.89751 eV ==== 
     psi = 0.163*[#   2]+0.163*[#   3]+0.163*[#   4]+0.163*[#   6]+0.163*[#   7]
          +0.163*[#   8]+0.006*[#   1]+0.006*[#   5]
    |psi|^2 = 0.990

 k =   0.6250000000 -0.2916666667  0.8750000000
==== e(   1) =    -3.29373 eV ==== 
     psi = 0.331*[#   1]+0.331*[#   5]+0.055*[#   2]+0.055*[#   3]+0.055*[#   4]
          +0.055*[#   6]+0.055*[#   7]+0.055*[#   8]
    |psi|^2 = 0.995
==== e(   2) =    -0.20899 eV ==== 
     psi = 0.224*[#   1]+0.224*[#   5]+0.091*[#   2]+0.091*[#   3]+0.091*[#   4]
          +0.091*[#   6]+0.091*[#   7]+0.091*[#   8]
    |psi|^2 = 0.992
==== e(   3) =     2.41663 eV ==== 
     psi = 0.151*[#   2]+0.151*[#   3]+0.151*[#   4]+0.151*[#   6]+0.151*[#   7]
          +0.151*[#   8]+0.043*[#   1]+0.043*[#   5]
    |psi|^2 = 0.992
==== e(   4) =     3.63007 eV ==== 
     psi = 0.164*[#   2]+0.164*[#   3]+0.164*[#   4]+0.164*[#   6]+0.164*[#   7]
          +0.164*[#   8]+0.003*[#   1]+0.003*[#   5]
    |psi|^2 = 0.990

 k =   0.5416666667 -0.2083333333  0.7916666667
==== e(   1) =    -2.87519 eV ==== 
     psi = 0.344*[#   1]+0.344*[#   5]+0.052*[#   2]+0.052*[#   3]+0.052*[#   4]
          +0.052*[#   6]+0.052*[#   7]+0.052*[#   8]
    |psi|^2 = 0.996
==== e(   2) =    -0.75931 eV ==== 
     psi = 0.208*[#   1]+0.208*[#   5]+0.096*[#   2]+0.096*[#   3]+0.096*[#   4]
          +0.096*[#   6]+0.096*[#   7]+0.096*[#   8]
    |psi|^2 = 0.991
==== e(   3) =     2.24502 eV ==== 
     psi = 0.150*[#   2]+0.150*[#   3]+0.150*[#   4]+0.150*[#   6]+0.150*[#   7]
          +0.150*[#   8]+0.046*[#   1]+0.046*[#   5]
    |psi|^2 = 0.993
==== e(   4) =     3.55667 eV ==== 
     psi = 0.164*[#   2]+0.164*[#   3]+0.164*[#   4]+0.164*[#   6]+0.164*[#   7]
          +0.164*[#   8]+0.002*[#   1]+0.002*[#   5]
    |psi|^2 = 0.991

 k =   0.4583333333 -0.1250000000  0.7083333333
==== e(   1) =    -3.12043 eV ==== 
     psi = 0.336*[#   1]+0.336*[#   5]+0.054*[#   2]+0.054*[#   3]+0.054*[#   4]
          +0.054*[#   6]+0.054*[#   7]+0.054*[#   8]
    |psi|^2 = 0.996
==== e(   2) =    -0.44120 eV ==== 
     psi = 0.217*[#   1]+0.217*[#   5]+0.093*[#   2]+0.093*[#   3]+0.093*[#   4]
          +0.093*[#   6]+0.093*[#   7]+0.093*[#   8]
    |psi|^2 = 0.992
==== e(   3) =     2.22214 eV ==== 
     psi = 0.151*[#   2]+0.151*[#   3]+0.151*[#   4]+0.151*[#   6]+0.151*[#   7]
          +0.151*[#   8]+0.042*[#   1]+0.042*[#   5]
    |psi|^2 = 0.992
==== e(   4) =     3.70120 eV ==== 
     psi = 0.164*[#   2]+0.164*[#   3]+0.164*[#   4]+0.164*[#   6]+0.164*[#   7]
          +0.164*[#   8]+0.004*[#   1]+0.004*[#   5]
    |psi|^2 = 0.990

 k =   0.3750000000 -0.0416666667  0.6250000000
==== e(   1) =    -3.71567 eV ==== 
[...]
    |psi|^2 = 0.993
==== e(   3) =     2.09227 eV ==== 
     psi = 0.154*[#   2]+0.154*[#   3]+0.154*[#   4]+0.154*[#   6]+0.154*[#   7]
          +0.154*[#   8]+0.033*[#   1]+0.033*[#   5]
    |psi|^2 = 0.991
==== e(   4) =     4.44145 eV ==== 
     psi = 0.165*[#   2]+0.165*[#   3]+0.165*[#   4]+0.165*[#   6]+0.165*[#   7]
          +0.165*[#   8]
    |psi|^2 = 0.989

 k =   0.3750000000 -0.3750000000  0.9583333333
==== e(   1) =    -2.95432 eV ==== 
     psi = 0.335*[#   1]+0.335*[#   5]+0.054*[#   2]+0.054*[#   3]+0.054*[#   4]
          +0.054*[#   6]+0.054*[#   7]+0.054*[#   8]
    |psi|^2 = 0.996
==== e(   2) =    -0.51486 eV ==== 
     psi = 0.235*[#   1]+0.235*[#   5]+0.087*[#   2]+0.087*[#   3]+0.087*[#   4]
          +0.087*[#   6]+0.087*[#   7]+0.087*[#   8]
    |psi|^2 = 0.993
==== e(   3) =     1.75326 eV ==== 
     psi = 0.159*[#   2]+0.159*[#   3]+0.159*[#   4]+0.159*[#   6]+0.159*[#   7]
          +0.159*[#   8]+0.018*[#   1]+0.018*[#   5]
    |psi|^2 = 0.992
==== e(   4) =     4.05723 eV ==== 
     psi = 0.165*[#   2]+0.165*[#   3]+0.165*[#   4]+0.165*[#   6]+0.165*[#   7]
          +0.165*[#   8]
    |psi|^2 = 0.991

 k =   0.2916666667 -0.2916666667  0.8750000000
==== e(   1) =    -2.65068 eV ==== 
     psi = 0.336*[#   1]+0.336*[#   5]+0.054*[#   2]+0.054*[#   3]+0.054*[#   4]
          +0.054*[#   6]+0.054*[#   7]+0.054*[#   8]
    |psi|^2 = 0.996
==== e(   2) =    -0.87045 eV ==== 
     psi = 0.234*[#   1]+0.234*[#   5]+0.087*[#   2]+0.087*[#   3]+0.087*[#   4]
          +0.087*[#   6]+0.087*[#   7]+0.087*[#   8]
    |psi|^2 = 0.993
==== e(   3) =     1.89822 eV ==== 
     psi = 0.159*[#   2]+0.159*[#   3]+0.159*[#   4]+0.159*[#   6]+0.159*[#   7]
          +0.159*[#   8]+0.020*[#   1]+0.020*[#   5]
    |psi|^2 = 0.993
==== e(   4) =     3.76581 eV ==== 
     psi = 0.165*[#   2]+0.165*[#   3]+0.165*[#   4]+0.165*[#   6]+0.165*[#   7]
          +0.165*[#   8]
    |psi|^2 = 0.992

 k =  -0.2916666667  0.4583333333  0.2916666667
==== e(   1) =    -4.32613 eV ==== 
     psi = 0.359*[#   1]+0.359*[#   5]+0.046*[#   2]+0.046*[#   3]+0.046*[#   4]
          +0.046*[#   6]+0.046*[#   7]+0.046*[#   8]
    |psi|^2 = 0.996
==== e(   2) =     0.49561 eV ==== 
     psi = 0.160*[#   1]+0.160*[#   5]+0.111*[#   2]+0.111*[#   3]+0.111*[#   4]
          +0.111*[#   6]+0.111*[#   7]+0.111*[#   8]
    |psi|^2 = 0.989
==== e(   3) =     4.52136 eV ==== 
     psi = 0.149*[#   2]+0.149*[#   3]+0.149*[#   4]+0.149*[#   6]+0.149*[#   7]
          +0.149*[#   8]+0.047*[#   1]+0.047*[#   5]
    |psi|^2 = 0.986
==== e(   4) =     4.59266 eV ==== 
     psi = 0.164*[#   2]+0.164*[#   3]+0.164*[#   4]+0.164*[#   6]+0.164*[#   7]
          +0.164*[#   8]
    |psi|^2 = 0.986

 k =  -0.3750000000  0.5416666667  0.2083333333
==== e(   1) =    -3.96758 eV ==== 
     psi = 0.350*[#   1]+0.350*[#   5]+0.049*[#   2]+0.049*[#   3]+0.049*[#   4]
          +0.049*[#   6]+0.049*[#   7]+0.049*[#   8]
    |psi|^2 = 0.996
==== e(   2) =     0.15592 eV ==== 
     psi = 0.172*[#   1]+0.172*[#   5]+0.108*[#   2]+0.108*[#   3]+0.108*[#   4]
          +0.108*[#   6]+0.108*[#   7]+0.108*[#   8]
    |psi|^2 = 0.990
==== e(   3) =     3.47381 eV ==== 
     psi = 0.145*[#   2]+0.145*[#   3]+0.145*[#   4]+0.145*[#   6]+0.145*[#   7]
          +0.145*[#   8]+0.060*[#   1]+0.060*[#   5]
    |psi|^2 = 0.990
==== e(   4) =     4.52242 eV ==== 
     psi = 0.163*[#   2]+0.163*[#   3]+0.163*[#   4]+0.163*[#   6]+0.163*[#   7]
          +0.163*[#   8]+0.006*[#   1]+0.006*[#   5]
    |psi|^2 = 0.988

 k =   0.5416666667 -0.3750000000  1.1250000000
==== e(   1) =    -3.47456 eV ==== 
     psi = 0.340*[#   1]+0.340*[#   5]+0.053*[#   2]+0.053*[#   3]+0.053*[#   4]
          +0.053*[#   6]+0.053*[#   7]+0.053*[#   8]
    |psi|^2 = 0.996
==== e(   2) =    -0.14342 eV ==== 
     psi = 0.201*[#   1]+0.201*[#   5]+0.098*[#   2]+0.098*[#   3]+0.098*[#   4]
          +0.098*[#   6]+0.098*[#   7]+0.098*[#   8]
    |psi|^2 = 0.991
==== e(   3) =     2.44020 eV ==== 
     psi = 0.149*[#   2]+0.149*[#   3]+0.149*[#   4]+0.149*[#   6]+0.149*[#   7]
          +0.149*[#   8]+0.050*[#   1]+0.050*[#   5]
    |psi|^2 = 0.992
==== e(   4) =     4.15571 eV ==== 
     psi = 0.163*[#   2]+0.163*[#   3]+0.163*[#   4]+0.163*[#   6]+0.163*[#   7]
          +0.163*[#   8]+0.004*[#   1]+0.004*[#   5]
    |psi|^2 = 0.989

 k =   0.4583333333 -0.2916666667  1.0416666667
==== e(   1) =    -2.89284 eV ==== 
     psi = 0.332*[#   1]+0.332*[#   5]+0.055*[#   2]+0.055*[#   3]+0.055*[#   4]
          +0.055*[#   6]+0.055*[#   7]+0.055*[#   8]
    |psi|^2 = 0.996
==== e(   2) =    -0.54351 eV ==== 
     psi = 0.242*[#   1]+0.242*[#   5]+0.085*[#   2]+0.085*[#   3]+0.085*[#   4]
          +0.085*[#   6]+0.085*[#   7]+0.085*[#   8]
    |psi|^2 = 0.993
==== e(   3) =     1.79846 eV ==== 
     psi = 0.160*[#   2]+0.160*[#   3]+0.160*[#   4]+0.160*[#   6]+0.160*[#   7]
          +0.160*[#   8]+0.017*[#   1]+0.017*[#   5]
    |psi|^2 = 0.992
==== e(   4) =     3.73102 eV ==== 
     psi = 0.164*[#   2]+0.164*[#   3]+0.164*[#   4]+0.164*[#   6]+0.164*[#   7]
          +0.164*[#   8]+0.005*[#   1]+0.005*[#   5]
    |psi|^2 = 0.991

 k =   0.3750000000 -0.2083333333  0.9583333333
==== e(   1) =    -2.38709 eV ==== 
     psi = 0.329*[#   1]+0.329*[#   5]+0.056*[#   2]+0.056*[#   3]+0.056*[#   4]
          +0.056*[#   6]+0.056*[#   7]+0.056*[#   8]
    |psi|^2 = 0.996
==== e(   2) =    -1.01965 eV ==== 
     psi = 0.259*[#   1]+0.259*[#   5]+0.079*[#   2]+0.079*[#   3]+0.079*[#   4]
          +0.079*[#   6]+0.079*[#   7]+0.079*[#   8]
    |psi|^2 = 0.994
==== e(   3) =     1.73239 eV ==== 
     psi = 0.164*[#   2]+0.164*[#   3]+0.164*[#   4]+0.164*[#   6]+0.164*[#   7]
          +0.164*[#   8]+0.004*[#   1]+0.004*[#   5]
    |psi|^2 = 0.993
==== e(   4) =     3.39040 eV ==== 
     psi = 0.164*[#   2]+0.164*[#   3]+0.164*[#   4]+0.164*[#   6]+0.164*[#   7]
          +0.164*[#   8]+0.005*[#   1]+0.005*[#   5]
    |psi|^2 = 0.992

 k =  -0.2916666667  0.6250000000  0.2916666667
==== e(   1) =    -3.68450 eV ==== 
     psi = 0.348*[#   1]+0.348*[#   5]+0.050*[#   2]+0.050*[#   3]+0.050*[#   4]
          +0.050*[#   6]+0.050*[#   7]+0.050*[#   8]
    |psi|^2 = 0.996
==== e(   2) =    -0.17783 eV ==== 
     psi = 0.176*[#   1]+0.176*[#   5]+0.106*[#   2]+0.106*[#   3]+0.106*[#   4]
          +0.106*[#   6]+0.106*[#   7]+0.106*[#   8]
    |psi|^2 = 0.990
==== e(   3) =     3.36763 eV ==== 
     psi = 0.143*[#   2]+0.143*[#   3]+0.143*[#   4]+0.143*[#   6]+0.143*[#   7]
          +0.143*[#   8]+0.067*[#   1]+0.067*[#   5]
    |psi|^2 = 0.991
==== e(   4) =     4.16074 eV ==== 
     psi = 0.165*[#   2]+0.165*[#   3]+0.165*[#   4]+0.165*[#   6]+0.165*[#   7]
          +0.165*[#   8]
    |psi|^2 = 0.990

 k =   0.6250000000 -0.2916666667  1.2083333333
==== e(   1) =    -3.27261 eV ==== 
     psi = 0.341*[#   1]+0.341*[#   5]+0.052*[#   2]+0.052*[#   3]+0.052*[#   4]
          +0.052*[#   6]+0.052*[#   7]+0.052*[#   8]
    |psi|^2 = 0.996
==== e(   2) =    -0.43971 eV ==== 
     psi = 0.197*[#   1]+0.197*[#   5]+0.099*[#   2]+0.099*[#   3]+0.099*[#   4]
          +0.099*[#   6]+0.099*[#   7]+0.099*[#   8]
    |psi|^2 = 0.991
==== e(   3) =     2.65068 eV ==== 
     psi = 0.146*[#   2]+0.146*[#   3]+0.146*[#   4]+0.146*[#   6]+0.146*[#   7]
          +0.146*[#   8]+0.057*[#   1]+0.057*[#   5]
    |psi|^2 = 0.992
==== e(   4) =     3.83235 eV ==== 
     psi = 0.165*[#   2]+0.165*[#   3]+0.165*[#   4]+0.165*[#   6]+0.165*[#   7]
          +0.165*[#   8]+0.001*[#   1]+0.001*[#   5]
    |psi|^2 = 0.990

 k =   0.5416666667 -0.2083333333  1.1250000000
==== e(   1) =    -2.76198 eV ==== 
     psi = 0.332*[#   1]+0.332*[#   5]+0.055*[#   2]+0.055*[#   3]+0.055*[#   4]
          +0.055*[#   6]+0.055*[#   7]+0.055*[#   8]
    |psi|^2 = 0.996
==== e(   2) =    -0.71379 eV ==== 
     psi = 0.238*[#   1]+0.238*[#   5]+0.086*[#   2]+0.086*[#   3]+0.086*[#   4]
          +0.086*[#   6]+0.086*[#   7]+0.086*[#   8]
    |psi|^2 = 0.993
==== e(   3) =     2.05069 eV ==== 
     psi = 0.155*[#   2]+0.155*[#   3]+0.155*[#   4]+0.155*[#   6]+0.155*[#   7]
          +0.155*[#   8]+0.030*[#   1]+0.030*[#   5]
    |psi|^2 = 0.993
==== e(   4) =     3.28439 eV ==== 
     psi = 0.164*[#   2]+0.164*[#   3]+0.164*[#   4]+0.164*[#   6]+0.164*[#   7]
          +0.164*[#   8]+0.003*[#   1]+0.003*[#   5]
    |psi|^2 = 0.991

 k =   0.4583333333 -0.1250000000  1.0416666667
==== e(   1) =    -2.20425 eV ==== 
     psi = 0.321*[#   1]+0.321*[#   5]+0.059*[#   2]+0.059*[#   3]+0.059*[#   4]
          +0.059*[#   6]+0.059*[#   7]+0.059*[#   8]
    |psi|^2 = 0.996
==== e(   2) =    -1.13299 eV ==== 
     psi = 0.276*[#   1]+0.276*[#   5]+0.074*[#   2]+0.074*[#   3]+0.074*[#   4]
          +0.074*[#   6]+0.074*[#   7]+0.074*[#   8]
    |psi|^2 = 0.994
==== e(   3) =     1.86529 eV ==== 
     psi = 0.164*[#   2]+0.164*[#   3]+0.164*[#   4]+0.164*[#   6]+0.164*[#   7]
          +0.164*[#   8]+0.003*[#   1]+0.003*[#   5]
    |psi|^2 = 0.993
==== e(   4) =     2.79988 eV ==== 
     psi = 0.164*[#   2]+0.164*[#   3]+0.164*[#   4]+0.164*[#   6]+0.164*[#   7]
          +0.164*[#   8]+0.004*[#   1]+0.004*[#   5]
    |psi|^2 = 0.993

 k =  -0.2916666667 -1.2083333333  0.2916666667
==== e(   1) =    -2.96710 eV ==== 
     psi = 0.340*[#   1]+0.340*[#   5]+0.053*[#   2]+0.053*[#   3]+0.053*[#   4]
          +0.053*[#   6]+0.053*[#   7]+0.053*[#   8]
    |psi|^2 = 0.996
==== e(   2) =    -0.68078 eV ==== 
     psi = 0.211*[#   1]+0.211*[#   5]+0.095*[#   2]+0.095*[#   3]+0.095*[#   4]
          +0.095*[#   6]+0.095*[#   7]+0.095*[#   8]
    |psi|^2 = 0.991
==== e(   3) =     2.28506 eV ==== 
     psi = 0.152*[#   2]+0.152*[#   3]+0.152*[#   4]+0.152*[#   6]+0.152*[#   7]
          +0.152*[#   8]+0.041*[#   1]+0.041*[#   5]
    |psi|^2 = 0.993
==== e(   4) =     3.85636 eV ==== 
     psi = 0.165*[#   2]+0.165*[#   3]+0.165*[#   4]+0.165*[#   6]+0.165*[#   7]
          +0.165*[#   8]
    |psi|^2 = 0.992

 k =  -0.3750000000 -1.1250000000  0.2083333333
==== e(   1) =    -2.59441 eV ==== 
     psi = 0.333*[#   1]+0.333*[#   5]+0.055*[#   2]+0.055*[#   3]+0.055*[#   4]
          +0.055*[#   6]+0.055*[#   7]+0.055*[#   8]
    |psi|^2 = 0.996
==== e(   2) =    -0.88560 eV ==== 
     psi = 0.241*[#   1]+0.241*[#   5]+0.085*[#   2]+0.085*[#   3]+0.085*[#   4]
          +0.085*[#   6]+0.085*[#   7]+0.085*[#   8]
    |psi|^2 = 0.993
==== e(   3) =     1.91626 eV ==== 
     psi = 0.159*[#   2]+0.159*[#   3]+0.159*[#   4]+0.159*[#   6]+0.159*[#   7]
          +0.159*[#   8]+0.019*[#   1]+0.019*[#   5]
    |psi|^2 = 0.993
==== e(   4) =     3.46070 eV ==== 
     psi = 0.164*[#   2]+0.164*[#   3]+0.164*[#   4]+0.164*[#   6]+0.164*[#   7]
          +0.164*[#   8]+0.004*[#   1]+0.004*[#   5]
    |psi|^2 = 0.992

 k =  -0.2916666667 -1.0416666667  0.2916666667
==== e(   1) =    -2.44872 eV ==== 
     psi = 0.332*[#   1]+0.332*[#   5]+0.055*[#   2]+0.055*[#   3]+0.055*[#   4]
          +0.055*[#   6]+0.055*[#   7]+0.055*[#   8]
    |psi|^2 = 0.996
==== e(   2) =    -0.99168 eV ==== 
     psi = 0.252*[#   1]+0.252*[#   5]+0.081*[#   2]+0.081*[#   3]+0.081*[#   4]
          +0.081*[#   6]+0.081*[#   7]+0.081*[#   8]
    |psi|^2 = 0.993
==== e(   3) =     1.68563 eV ==== 
     psi = 0.164*[#   2]+0.164*[#   3]+0.164*[#   4]+0.164*[#   6]+0.164*[#   7]
          +0.164*[#   8]+0.004*[#   1]+0.004*[#   5]
    |psi|^2 = 0.993
==== e(   4) =     3.71998 eV ==== 
     psi = 0.165*[#   2]+0.165*[#   3]+0.165*[#   4]+0.165*[#   6]+0.165*[#   7]
          +0.165*[#   8]
    |psi|^2 = 0.993

 k =  -0.3750000000  0.3750000000  0.3750000000
==== e(   1) =    -4.19860 eV ==== 
     psi = 0.365*[#   1]+0.365*[#   5]+0.044*[#   2]+0.044*[#   3]+0.044*[#   4]
          +0.044*[#   6]+0.044*[#   7]+0.044*[#   8]
    |psi|^2 = 0.996
==== e(   2) =     0.07887 eV ==== 
     psi = 0.152*[#   1]+0.152*[#   5]+0.114*[#   2]+0.114*[#   3]+0.114*[#   4]
          +0.114*[#   6]+0.114*[#   7]+0.114*[#   8]
    |psi|^2 = 0.988
==== e(   3) =     4.87307 eV ==== 
     psi = 0.164*[#   2]+0.164*[#   3]+0.164*[#   4]+0.164*[#   6]+0.164*[#   7]
          +0.164*[#   8]
    |psi|^2 = 0.986
==== e(   4) =     4.87307 eV ==== 
     psi = 0.164*[#   2]+0.164*[#   3]+0.164*[#   4]+0.164*[#   6]+0.164*[#   7]
          +0.164*[#   8]
    |psi|^2 = 0.986

 k =  -0.4583333333  0.4583333333  0.2916666667
==== e(   1) =    -3.92145 eV ==== 
     psi = 0.363*[#   1]+0.363*[#   5]+0.045*[#   2]+0.045*[#   3]+0.045*[#   4]
          +0.045*[#   6]+0.045*[#   7]+0.045*[#   8]
    |psi|^2 = 0.996
==== e(   2) =    -0.23383 eV ==== 
     psi = 0.152*[#   1]+0.152*[#   5]+0.114*[#   2]+0.114*[#   3]+0.114*[#   4]
          +0.114*[#   6]+0.114*[#   7]+0.114*[#   8]
    |psi|^2 = 0.988
==== e(   3) =     4.09354 eV ==== 
     psi = 0.150*[#   2]+0.150*[#   3]+0.150*[#   4]+0.150*[#   6]+0.150*[#   7]
          +0.150*[#   8]+0.043*[#   1]+0.043*[#   5]
    |psi|^2 = 0.988
==== e(   4) =     4.83642 eV ==== 
     psi = 0.165*[#   2]+0.165*[#   3]+0.165*[#   4]+0.165*[#   6]+0.165*[#   7]
          +0.165*[#   8]
    |psi|^2 = 0.987

 k =   0.4583333333 -0.4583333333  1.2083333333
==== e(   1) =    -3.51287 eV ==== 
     psi = 0.355*[#   1]+0.355*[#   5]+0.048*[#   2]+0.048*[#   3]+0.048*[#   4]
          +0.048*[#   6]+0.048*[#   7]+0.048*[#   8]
    |psi|^2 = 0.996
==== e(   2) =    -0.43802 eV ==== 
     psi = 0.167*[#   1]+0.167*[#   5]+0.109*[#   2]+0.109*[#   3]+0.109*[#   4]
          +0.109*[#   6]+0.109*[#   7]+0.109*[#   8]
    |psi|^2 = 0.990
==== e(   3) =     2.95959 eV ==== 
     psi = 0.144*[#   2]+0.144*[#   3]+0.144*[#   4]+0.144*[#   6]+0.144*[#   7]
          +0.144*[#   8]+0.062*[#   1]+0.062*[#   5]
    |psi|^2 = 0.991
==== e(   4) =     4.51323 eV ==== 
     psi = 0.165*[#   2]+0.165*[#   3]+0.165*[#   4]+0.165*[#   6]+0.165*[#   7]
          +0.165*[#   8]
    |psi|^2 = 0.989

 k =   0.3750000000 -0.3750000000  1.1250000000
==== e(   1) =    -3.00285 eV ==== 
     psi = 0.343*[#   1]+0.343*[#   5]+0.052*[#   2]+0.052*[#   3]+0.052*[#   4]
          +0.052*[#   6]+0.052*[#   7]+0.052*[#   8]
    |psi|^2 = 0.996
==== e(   2) =    -0.62643 eV ==== 
     psi = 0.208*[#   1]+0.208*[#   5]+0.096*[#   2]+0.096*[#   3]+0.096*[#   4]
          +0.096*[#   6]+0.096*[#   7]+0.096*[#   8]
    |psi|^2 = 0.992
==== e(   3) =     2.04273 eV ==== 
     psi = 0.153*[#   2]+0.153*[#   3]+0.153*[#   4]+0.153*[#   6]+0.153*[#   7]
          +0.153*[#   8]+0.038*[#   1]+0.038*[#   5]
    |psi|^2 = 0.992
==== e(   4) =     4.09539 eV ==== 
     psi = 0.165*[#   2]+0.165*[#   3]+0.165*[#   4]+0.165*[#   6]+0.165*[#   7]
          +0.165*[#   8]
    |psi|^2 = 0.991

 k =  -0.3750000000  0.5416666667  0.3750000000
==== e(   1) =    -3.73855 eV ==== 
     psi = 0.368*[#   1]+0.368*[#   5]+0.043*[#   2]+0.043*[#   3]+0.043*[#   4]
          +0.043*[#   6]+0.043*[#   7]+0.043*[#   8]
    |psi|^2 = 0.996
==== e(   2) =    -0.52785 eV ==== 
     psi = 0.146*[#   1]+0.146*[#   5]+0.116*[#   2]+0.116*[#   3]+0.116*[#   4]
          +0.116*[#   6]+0.116*[#   7]+0.116*[#   8]
    |psi|^2 = 0.988
==== e(   3) =     4.27328 eV ==== 
     psi = 0.149*[#   2]+0.149*[#   3]+0.149*[#   4]+0.149*[#   6]+0.149*[#   7]
          +0.149*[#   8]+0.048*[#   1]+0.048*[#   5]
    |psi|^2 = 0.988
==== e(   4) =     4.56253 eV ==== 
     psi = 0.165*[#   2]+0.165*[#   3]+0.165*[#   4]+0.165*[#   6]+0.165*[#   7]
          +0.165*[#   8]
    |psi|^2 = 0.988

 k =   0.5416666667 -0.3750000000  1.2916666667
==== e(   1) =    -3.43939 eV ==== 
     psi = 0.365*[#   1]+0.365*[#   5]+0.045*[#   2]+0.045*[#   3]+0.045*[#   4]
          +0.045*[#   6]+0.045*[#   7]+0.045*[#   8]
    |psi|^2 = 0.997
==== e(   2) =    -0.68253 eV ==== 
     psi = 0.153*[#   1]+0.153*[#   5]+0.114*[#   2]+0.114*[#   3]+0.114*[#   4]
          +0.114*[#   6]+0.114*[#   7]+0.114*[#   8]
    |psi|^2 = 0.989
==== e(   3) =     3.39513 eV ==== 
     psi = 0.143*[#   2]+0.143*[#   3]+0.143*[#   4]+0.143*[#   6]+0.143*[#   7]
          +0.143*[#   8]+0.066*[#   1]+0.066*[#   5]
    |psi|^2 = 0.990
==== e(   4) =     4.35223 eV ==== 
     psi = 0.164*[#   2]+0.164*[#   3]+0.164*[#   4]+0.164*[#   6]+0.164*[#   7]
          +0.164*[#   8]+0.001*[#   1]+0.001*[#   5]
    |psi|^2 = 0.988

 k =   0.4583333333 -0.2916666667  1.2083333333
==== e(   1) =    -3.05011 eV ==== 
     psi = 0.352*[#   1]+0.352*[#   5]+0.049*[#   2]+0.049*[#   3]+0.049*[#   4]
          +0.049*[#   6]+0.049*[#   7]+0.049*[#   8]
    |psi|^2 = 0.996
==== e(   2) =    -0.74008 eV ==== 
     psi = 0.184*[#   1]+0.184*[#   5]+0.104*[#   2]+0.104*[#   3]+0.104*[#   4]
          +0.104*[#   6]+0.104*[#   7]+0.104*[#   8]
    |psi|^2 = 0.990
==== e(   3) =     2.46792 eV ==== 
     psi = 0.147*[#   2]+0.147*[#   3]+0.147*[#   4]+0.147*[#   6]+0.147*[#   7]
          +0.147*[#   8]+0.057*[#   1]+0.057*[#   5]
    |psi|^2 = 0.992
==== e(   4) =     3.91110 eV ==== 
     psi = 0.164*[#   2]+0.164*[#   3]+0.164*[#   4]+0.164*[#   6]+0.164*[#   7]
          +0.164*[#   8]+0.002*[#   1]+0.002*[#   5]
    |psi|^2 = 0.990

 k =  -0.3750000000 -1.2916666667  0.3750000000
==== e(   1) =    -3.27798 eV ==== 
     psi = 0.364*[#   1]+0.364*[#   5]+0.045*[#   2]+0.045*[#   3]+0.045*[#   4]
          +0.045*[#   6]+0.045*[#   7]+0.045*[#   8]
    |psi|^2 = 0.997
==== e(   2) =    -0.77942 eV ==== 
     psi = 0.156*[#   1]+0.156*[#   5]+0.113*[#   2]+0.113*[#   3]+0.113*[#   4]
          +0.113*[#   6]+0.113*[#   7]+0.113*[#   8]
    |psi|^2 = 0.989
==== e(   3) =     3.09221 eV ==== 
     psi = 0.143*[#   2]+0.143*[#   3]+0.143*[#   4]+0.143*[#   6]+0.143*[#   7]
          +0.143*[#   8]+0.066*[#   1]+0.066*[#   5]
    |psi|^2 = 0.991
==== e(   4) =     4.27711 eV ==== 
     psi = 0.165*[#   2]+0.165*[#   3]+0.165*[#   4]+0.165*[#   6]+0.165*[#   7]
          +0.165*[#   8]
    |psi|^2 = 0.990

 k =  -0.4583333333  0.4583333333  0.4583333333
==== e(   1) =    -3.67455 eV ==== 
     psi = 0.382*[#   1]+0.382*[#   5]+0.039*[#   2]+0.039*[#   3]+0.039*[#   4]
          +0.039*[#   6]+0.039*[#   7]+0.039*[#   8]
    |psi|^2 = 0.997
==== e(   2) =    -0.78081 eV ==== 
     psi = 0.131*[#   1]+0.131*[#   5]+0.121*[#   2]+0.121*[#   3]+0.121*[#   4]
          +0.121*[#   6]+0.121*[#   7]+0.121*[#   8]
    |psi|^2 = 0.987
==== e(   3) =     4.77479 eV ==== 
     psi = 0.165*[#   2]+0.165*[#   3]+0.165*[#   4]+0.165*[#   6]+0.165*[#   7]
          +0.165*[#   8]
    |psi|^2 = 0.987
==== e(   4) =     4.77479 eV ==== 
     psi = 0.165*[#   2]+0.165*[#   3]+0.165*[#   4]+0.165*[#   6]+0.165*[#   7]
          +0.165*[#   8]
    |psi|^2 = 0.987

 k =   0.4583333333 -0.4583333333  1.3750000000
==== e(   1) =    -3.51487 eV ==== 
     psi = 0.381*[#   1]+0.381*[#   5]+0.039*[#   2]+0.039*[#   3]+0.039*[#   4]
          +0.039*[#   6]+0.039*[#   7]+0.039*[#   8]
    |psi|^2 = 0.997
==== e(   2) =    -0.86101 eV ==== 
     psi = 0.132*[#   1]+0.132*[#   5]+0.121*[#   2]+0.121*[#   3]+0.121*[#   4]
          +0.121*[#   6]+0.121*[#   7]+0.121*[#   8]
    |psi|^2 = 0.987
==== e(   3) =     4.12578 eV ==== 
     psi = 0.149*[#   2]+0.149*[#   3]+0.149*[#   4]+0.149*[#   6]+0.149*[#   7]
          +0.149*[#   8]+0.046*[#   1]+0.046*[#   5]
    |psi|^2 = 0.988
==== e(   4) =     4.64766 eV ==== 
     psi = 0.165*[#   2]+0.165*[#   3]+0.165*[#   4]+0.165*[#   6]+0.165*[#   7]
          +0.165*[#   8]
    |psi|^2 = 0.988

Lowdin Charges: 

     Atom #   1: total charge =   3.9642, s =  1.1764, 
     Atom #   1: total charge =   3.9642, p =  2.7878, pz=  0.9293, px=  0.9293, py=  0.9293, 
     Atom #   2: total charge =   3.9642, s =  1.1764, 
     Atom #   2: total charge =   3.9642, p =  2.7878, pz=  0.9293, px=  0.9293, py=  0.9293, 
     Spilling Parameter:   0.0089
 
     PROJWFC      :      0.24s CPU      0.32s WALL

 
   This run was terminated on:  18:11:24  13Mar2026            

=------------------------------------------------------------------------------=
   JOB DONE.
=------------------------------------------------------------------------------=
