
     Program PWSCF v.7.1 starts on 13Mar2026 at 17:34:24 

     This program is part of the open-source Quantum ESPRESSO suite
     for quantum simulation of materials; please cite
         "P. Giannozzi et al., J. Phys.:Condens. Matter 21 395502 (2009);
         "P. Giannozzi et al., J. Phys.:Condens. Matter 29 465901 (2017);
         "P. Giannozzi et al., J. Chem. Phys. 152 154105 (2020);
          URL http://www.quantum-espresso.org", 
     in publications or presentations arising from this work. More details at
     http://www.quantum-espresso.org/quote

     Parallel version (MPI), running on     8 processors

     MPI processes distributed on     1 nodes
     11545 MiB available memory on the printing compute node when the environment starts
 
     Waiting for input...
     Reading input from standard input

     Current dimensions of program PWSCF are:
     Max number of different atomic species (ntypx) = 10
     Max number of k-points (npk) =  40000
     Max angular momentum in pseudopotentials (lmaxx) =  4
     file Si.pbe-n-kjpaw_psl.1.0.0.UPF: wavefunction(s)  3S 3P renormalized
 
     R & G space division:  proc/nbgrp/npool/nimage =       8
     Subspace diagonalization in iterative solution of the eigenvalue problem:
     a serial algorithm will be used

 
     Parallelization info
     --------------------
     sticks:   dense  smooth     PW     G-vecs:    dense   smooth      PW
     Min          17      17      6                  132      132      34
     Max          18      18      7                  134      134      36
     Sum         139     139     55                 1067     1067     283
 
     Using Slab Decomposition
 


     bravais-lattice index     =            2
     lattice parameter (alat)  =      10.0000  a.u.
     unit-cell volume          =     250.0000 (a.u.)^3
     number of atoms/cell      =            2
     number of atomic types    =            1
     number of electrons       =         8.00
     number of Kohn-Sham states=            4
     kinetic-energy cutoff     =      10.0000  Ry
     charge density cutoff     =      40.0000  Ry
     scf convergence threshold =      1.0E-06
     mixing beta               =       0.6000
     number of iterations used =            8  plain     mixing
     Exchange-correlation= SLA  PW   PBX  PBC
                           (   1   4   3   4   0   0   0)

     celldm(1)=  10.000000  celldm(2)=   0.000000  celldm(3)=   0.000000
     celldm(4)=   0.000000  celldm(5)=   0.000000  celldm(6)=   0.000000

     crystal axes: (cart. coord. in units of alat)
               a(1) = (  -0.500000   0.000000   0.500000 )  
               a(2) = (   0.000000   0.500000   0.500000 )  
               a(3) = (  -0.500000   0.500000   0.000000 )  

     reciprocal axes: (cart. coord. in units 2 pi/alat)
               b(1) = ( -1.000000 -1.000000  1.000000 )  
               b(2) = (  1.000000  1.000000  1.000000 )  
               b(3) = ( -1.000000  1.000000 -1.000000 )  


     PseudoPot. # 1 for Si read from file:
     /home/karan/pseudos/Si.pbe-n-kjpaw_psl.1.0.0.UPF
     MD5 check sum: c39c59da582df4a0d9f10159256ea34e
     Pseudo is Projector augmented-wave + core cor, Zval =  4.0
     Generated using &quot;atomic&quot; code by A. Dal Corso  v.6.3
     Shape of augmentation charge: PSQ
     Using radial grid of 1141 points,  6 beta functions with: 
                l(1) =   0
                l(2) =   0
                l(3) =   1
                l(4) =   1
                l(5) =   2
                l(6) =   2
     Q(r) pseudized with 0 coefficients 


     atomic species   valence    mass     pseudopotential
        Si             4.00    28.08600     Si( 1.00)

     48 Sym. Ops., with inversion, found (24 have fractional translation)



   Cartesian axes

     site n.     atom                  positions (alat units)
         1           Si  tau(   1) = (   0.0000000   0.0000000   0.0000000  )
         2           Si  tau(   2) = (   0.2500000   0.2500000   0.2500000  )

     number of k points=    28
                       cart. coord. in units 2pi/alat
        k(    1) = (  -0.0833333   0.0833333   0.0833333), wk =   0.0185185
        k(    2) = (  -0.2500000   0.2500000  -0.0833333), wk =   0.0555556
        k(    3) = (  -0.4166667   0.4166667  -0.2500000), wk =   0.0555556
        k(    4) = (   0.4166667  -0.4166667   0.5833333), wk =   0.0555556
        k(    5) = (   0.2500000  -0.2500000   0.4166667), wk =   0.0555556
        k(    6) = (   0.0833333  -0.0833333   0.2500000), wk =   0.0555556
        k(    7) = (  -0.0833333   0.4166667   0.0833333), wk =   0.0555556
        k(    8) = (  -0.2500000   0.5833333  -0.0833333), wk =   0.1111111
        k(    9) = (   0.5833333  -0.2500000   0.7500000), wk =   0.1111111
        k(   10) = (   0.4166667  -0.0833333   0.5833333), wk =   0.1111111
        k(   11) = (   0.2500000   0.0833333   0.4166667), wk =   0.1111111
        k(   12) = (  -0.0833333   0.7500000   0.0833333), wk =   0.0555556
        k(   13) = (   0.7500000  -0.0833333   0.9166667), wk =   0.1111111
        k(   14) = (   0.5833333   0.0833333   0.7500000), wk =   0.1111111
        k(   15) = (   0.4166667   0.2500000   0.5833333), wk =   0.1111111
        k(   16) = (  -0.0833333  -0.9166667   0.0833333), wk =   0.0555556
        k(   17) = (  -0.2500000  -0.7500000  -0.0833333), wk =   0.1111111
        k(   18) = (  -0.0833333  -0.5833333   0.0833333), wk =   0.0555556
        k(   19) = (  -0.2500000   0.2500000   0.2500000), wk =   0.0185185
        k(   20) = (  -0.4166667   0.4166667   0.0833333), wk =   0.0555556
        k(   21) = (   0.4166667  -0.4166667   0.9166667), wk =   0.0555556
        k(   22) = (   0.2500000  -0.2500000   0.7500000), wk =   0.0555556
        k(   23) = (  -0.2500000   0.5833333   0.2500000), wk =   0.0555556
        k(   24) = (   0.5833333  -0.2500000   1.0833333), wk =   0.1111111
        k(   25) = (   0.4166667  -0.0833333   0.9166667), wk =   0.1111111
        k(   26) = (  -0.2500000  -1.0833333   0.2500000), wk =   0.0555556
        k(   27) = (  -0.4166667   0.4166667   0.4166667), wk =   0.0185185
        k(   28) = (   0.4166667  -0.4166667   1.2500000), wk =   0.0555556

     Dense  grid:     1067 G-vectors     FFT dimensions: (  16,  16,  16)

     Estimated max dynamical RAM per process >       1.02 MB

     Estimated total dynamical RAM >       8.17 MB

     Check: negative core charge=   -0.000309

     Initial potential from superposition of free atoms

     starting charge       7.9989, renormalised to       8.0000
     Starting wfcs are    8 randomized atomic wfcs
     Checking if some PAW data can be deallocated... 

     total cpu time spent up to now is        0.1 secs

     Self-consistent Calculation

     iteration #  1     ecut=    10.00 Ry     beta= 0.60
     Davidson diagonalization with overlap
     ethr =  1.00E-02,  avg # of iterations =  2.0

     Threshold (ethr) on eigenvalues was too large:
     Diagonalizing with lowered threshold

     Davidson diagonalization with overlap
     ethr =  7.19E-04,  avg # of iterations =  1.0

     total cpu time spent up to now is        0.2 secs

     total energy              =     -93.44579591 Ry
     estimated scf accuracy    <       0.06114303 Ry

     iteration #  2     ecut=    10.00 Ry     beta= 0.60
     Davidson diagonalization with overlap
     ethr =  7.64E-04,  avg # of iterations =  1.0

     total cpu time spent up to now is        0.3 secs

     total energy              =     -93.44643707 Ry
     estimated scf accuracy    <       0.00629965 Ry

     iteration #  3     ecut=    10.00 Ry     beta= 0.60
     Davidson diagonalization with overlap
     ethr =  7.87E-05,  avg # of iterations =  2.0

     total cpu time spent up to now is        0.4 secs

     total energy              =     -93.44726693 Ry
     estimated scf accuracy    <       0.00013572 Ry

     iteration #  4     ecut=    10.00 Ry     beta= 0.60
     Davidson diagonalization with overlap
     ethr =  1.70E-06,  avg # of iterations =  4.4

     total cpu time spent up to now is        0.4 secs

     total energy              =     -93.44736756 Ry
     estimated scf accuracy    <       0.00000616 Ry

     iteration #  5     ecut=    10.00 Ry     beta= 0.60
     Davidson diagonalization with overlap
     ethr =  7.70E-08,  avg # of iterations =  4.5

     total cpu time spent up to now is        0.5 secs

     End of self-consistent calculation

          k =-0.0833 0.0833 0.0833 (   134 PWs)   bands (ev):

    -5.3477   6.2517   6.9634   6.9634

          k =-0.2500 0.2500-0.0833 (   140 PWs)   bands (ev):

    -4.8377   4.0703   5.6118   6.7400

          k =-0.4167 0.4167-0.2500 (   138 PWs)   bands (ev):

    -3.6550   1.0982   5.1345   6.0420

          k = 0.4167-0.4167 0.5833 (   131 PWs)   bands (ev):

    -2.8739  -0.1545   5.2278   5.6222

          k = 0.2500-0.2500 0.4167 (   140 PWs)   bands (ev):

    -4.1039   2.0103   5.6785   5.7680

          k = 0.0833-0.0833 0.2500 (   134 PWs)   bands (ev):

    -5.0898   5.1528   6.2469   6.4935

          k =-0.0833 0.4167 0.0833 (   134 PWs)   bands (ev):

    -4.5787   3.9391   5.4452   5.4650

          k =-0.2500 0.5833-0.0833 (   136 PWs)   bands (ev):

    -3.5985   1.9860   4.0093   5.0292

          k = 0.5833-0.2500 0.7500 (   132 PWs)   bands (ev):

    -2.3642   0.0522   3.3946   4.7708

          k = 0.4167-0.0833 0.5833 (   134 PWs)   bands (ev):

    -3.1667   1.2284   3.3119   5.3129

          k = 0.2500 0.0833 0.4167 (   137 PWs)   bands (ev):

    -4.3356   3.0078   4.7699   6.0652

          k =-0.0833 0.7500 0.0833 (   131 PWs)   bands (ev):

    -2.8357   1.1557   3.9462   4.3256

          k = 0.7500-0.0833 0.9167 (   129 PWs)   bands (ev):

    -1.5350  -0.2742   3.0119   3.8727

          k = 0.5833 0.0833 0.7500 (   131 PWs)   bands (ev):

    -1.9133   0.0447   2.5001   4.4701

          k = 0.4167 0.2500 0.5833 (   135 PWs)   bands (ev):

    -3.0355   0.4187   4.3862   5.4221

          k =-0.0833-0.9167 0.0833 (   129 PWs)   bands (ev):

    -1.6459  -0.2907   3.6507   4.0920

          k =-0.2500-0.7500-0.0833 (   131 PWs)   bands (ev):

    -2.6481   0.9103   3.3819   4.2409

          k =-0.0833-0.5833 0.0833 (   133 PWs)   bands (ev):

    -3.8222   2.6024   4.5528   4.7843

          k =-0.2500 0.2500 0.2500 (   138 PWs)   bands (ev):

    -4.5896   3.0048   6.2940   6.2940

          k =-0.4167 0.4167 0.0833 (   136 PWs)   bands (ev):

    -3.8578   2.0638   3.9766   6.1107

          k = 0.4167-0.4167 0.9167 (   131 PWs)   bands (ev):

    -2.5706   0.5555   2.7590   5.2439

          k = 0.2500-0.2500 0.7500 (   132 PWs)   bands (ev):

    -2.5205   0.4719   3.2959   4.7116

          k =-0.2500 0.5833 0.2500 (   136 PWs)   bands (ev):

    -3.3973   1.1806   4.5270   5.1198

          k = 0.5833-0.2500 1.0833 (   132 PWs)   bands (ev):

    -2.3089   0.4721   2.8595   4.2324

          k = 0.4167-0.0833 0.9167 (   130 PWs)   bands (ev):

    -1.4026  -0.2800   2.6484   3.4964

          k =-0.2500-1.0833 0.2500 (   130 PWs)   bands (ev):

    -1.6275  -0.2060   2.5128   4.5012

          k =-0.4167 0.4167 0.4167 (   135 PWs)   bands (ev):

    -3.2910   0.2824   5.8696   5.8696

          k = 0.4167-0.4167 1.2500 (   131 PWs)   bands (ev):

    -2.6225  -0.0178   3.9240   5.3844

     highest occupied level (ev):     6.9634

!    total energy              =     -93.44737196 Ry
     total all-electron energy =     -1160.139102 Ry
     estimated scf accuracy    <       0.00000071 Ry

     The total energy is the sum of the following terms:
     one-electron contribution =       6.38279824 Ry
     hartree contribution      =       1.03385910 Ry
     xc contribution           =     -12.42896173 Ry
     ewald contribution        =     -17.23775375 Ry
     one-center paw contrib.   =     -71.19731381 Ry

     convergence has been achieved in   5 iterations

     Writing all to output data dir ./silicon.save/
 
     init_run     :      0.06s CPU      0.07s WALL (       1 calls)
     electrons    :      0.33s CPU      0.37s WALL (       1 calls)

     Called by init_run:
     wfcinit      :      0.01s CPU      0.01s WALL (       1 calls)
     potinit      :      0.04s CPU      0.05s WALL (       1 calls)
     hinit0       :      0.01s CPU      0.01s WALL (       1 calls)

     Called by electrons:
     c_bands      :      0.07s CPU      0.08s WALL (       6 calls)
     sum_band     :      0.01s CPU      0.01s WALL (       6 calls)
     v_of_rho     :      0.00s CPU      0.00s WALL (       6 calls)
     newd         :      0.00s CPU      0.00s WALL (       6 calls)
     PAW_pot      :      0.27s CPU      0.32s WALL (       6 calls)
     mix_rho      :      0.00s CPU      0.00s WALL (       6 calls)

     Called by c_bands:
     init_us_2    :      0.00s CPU      0.00s WALL (     364 calls)
     init_us_2:cp :      0.00s CPU      0.00s WALL (     364 calls)
     cegterg      :      0.06s CPU      0.06s WALL (     168 calls)

     Called by *egterg:
     cdiaghg      :      0.01s CPU      0.01s WALL (     558 calls)
     h_psi        :      0.04s CPU      0.04s WALL (     614 calls)
     s_psi        :      0.00s CPU      0.00s WALL (     614 calls)
     g_psi        :      0.00s CPU      0.00s WALL (     418 calls)

     Called by h_psi:
     h_psi:calbec :      0.00s CPU      0.01s WALL (     614 calls)
     vloc_psi     :      0.03s CPU      0.03s WALL (     614 calls)
     add_vuspsi   :      0.00s CPU      0.00s WALL (     614 calls)

     General routines
     calbec       :      0.01s CPU      0.01s WALL (     782 calls)
     fft          :      0.00s CPU      0.00s WALL (      67 calls)
     ffts         :      0.00s CPU      0.00s WALL (       6 calls)
     fftw         :      0.03s CPU      0.03s WALL (    5010 calls)
 
     Parallel routines
 
     PWSCF        :      0.45s CPU      0.52s WALL

 
   This run was terminated on:  17:34:24  13Mar2026            

=------------------------------------------------------------------------------=
   JOB DONE.
=------------------------------------------------------------------------------=
