
     Program PWSCF v.7.1 starts on 13Mar2026 at 17:34:25 

     This program is part of the open-source Quantum ESPRESSO suite
     for quantum simulation of materials; please cite
         "P. Giannozzi et al., J. Phys.:Condens. Matter 21 395502 (2009);
         "P. Giannozzi et al., J. Phys.:Condens. Matter 29 465901 (2017);
         "P. Giannozzi et al., J. Chem. Phys. 152 154105 (2020);
          URL http://www.quantum-espresso.org", 
     in publications or presentations arising from this work. More details at
     http://www.quantum-espresso.org/quote

     Parallel version (MPI), running on     8 processors

     MPI processes distributed on     1 nodes
     11541 MiB available memory on the printing compute node when the environment starts
 
     Waiting for input...
     Reading input from standard input

     Current dimensions of program PWSCF are:
     Max number of different atomic species (ntypx) = 10
     Max number of k-points (npk) =  40000
     Max angular momentum in pseudopotentials (lmaxx) =  4
     file Si.pbe-n-kjpaw_psl.1.0.0.UPF: wavefunction(s)  3S 3P renormalized
 
     R & G space division:  proc/nbgrp/npool/nimage =       8
     Subspace diagonalization in iterative solution of the eigenvalue problem:
     a serial algorithm will be used

 
     Parallelization info
     --------------------
     sticks:   dense  smooth     PW     G-vecs:    dense   smooth      PW
     Min          24      24     10                  237      237      57
     Max          25      25     11                  241      241      58
     Sum         199     199     85                 1917     1917     459
 
     Using Slab Decomposition
 


     bravais-lattice index     =            2
     lattice parameter (alat)  =      10.0000  a.u.
     unit-cell volume          =     250.0000 (a.u.)^3
     number of atoms/cell      =            2
     number of atomic types    =            1
     number of electrons       =         8.00
     number of Kohn-Sham states=            4
     kinetic-energy cutoff     =      15.0000  Ry
     charge density cutoff     =      60.0000  Ry
     scf convergence threshold =      1.0E-06
     mixing beta               =       0.6000
     number of iterations used =            8  plain     mixing
     Exchange-correlation= SLA  PW   PBX  PBC
                           (   1   4   3   4   0   0   0)

     celldm(1)=  10.000000  celldm(2)=   0.000000  celldm(3)=   0.000000
     celldm(4)=   0.000000  celldm(5)=   0.000000  celldm(6)=   0.000000

     crystal axes: (cart. coord. in units of alat)
               a(1) = (  -0.500000   0.000000   0.500000 )  
               a(2) = (   0.000000   0.500000   0.500000 )  
               a(3) = (  -0.500000   0.500000   0.000000 )  

     reciprocal axes: (cart. coord. in units 2 pi/alat)
               b(1) = ( -1.000000 -1.000000  1.000000 )  
               b(2) = (  1.000000  1.000000  1.000000 )  
               b(3) = ( -1.000000  1.000000 -1.000000 )  


     PseudoPot. # 1 for Si read from file:
     /home/karan/pseudos/Si.pbe-n-kjpaw_psl.1.0.0.UPF
     MD5 check sum: c39c59da582df4a0d9f10159256ea34e
     Pseudo is Projector augmented-wave + core cor, Zval =  4.0
     Generated using &quot;atomic&quot; code by A. Dal Corso  v.6.3
     Shape of augmentation charge: PSQ
     Using radial grid of 1141 points,  6 beta functions with: 
                l(1) =   0
                l(2) =   0
                l(3) =   1
                l(4) =   1
                l(5) =   2
                l(6) =   2
     Q(r) pseudized with 0 coefficients 


     atomic species   valence    mass     pseudopotential
        Si             4.00    28.08600     Si( 1.00)

     48 Sym. Ops., with inversion, found (24 have fractional translation)



   Cartesian axes

     site n.     atom                  positions (alat units)
         1           Si  tau(   1) = (   0.0000000   0.0000000   0.0000000  )
         2           Si  tau(   2) = (   0.2500000   0.2500000   0.2500000  )

     number of k points=    28
                       cart. coord. in units 2pi/alat
        k(    1) = (  -0.0833333   0.0833333   0.0833333), wk =   0.0185185
        k(    2) = (  -0.2500000   0.2500000  -0.0833333), wk =   0.0555556
        k(    3) = (  -0.4166667   0.4166667  -0.2500000), wk =   0.0555556
        k(    4) = (   0.4166667  -0.4166667   0.5833333), wk =   0.0555556
        k(    5) = (   0.2500000  -0.2500000   0.4166667), wk =   0.0555556
        k(    6) = (   0.0833333  -0.0833333   0.2500000), wk =   0.0555556
        k(    7) = (  -0.0833333   0.4166667   0.0833333), wk =   0.0555556
        k(    8) = (  -0.2500000   0.5833333  -0.0833333), wk =   0.1111111
        k(    9) = (   0.5833333  -0.2500000   0.7500000), wk =   0.1111111
        k(   10) = (   0.4166667  -0.0833333   0.5833333), wk =   0.1111111
        k(   11) = (   0.2500000   0.0833333   0.4166667), wk =   0.1111111
        k(   12) = (  -0.0833333   0.7500000   0.0833333), wk =   0.0555556
        k(   13) = (   0.7500000  -0.0833333   0.9166667), wk =   0.1111111
        k(   14) = (   0.5833333   0.0833333   0.7500000), wk =   0.1111111
        k(   15) = (   0.4166667   0.2500000   0.5833333), wk =   0.1111111
        k(   16) = (  -0.0833333  -0.9166667   0.0833333), wk =   0.0555556
        k(   17) = (  -0.2500000  -0.7500000  -0.0833333), wk =   0.1111111
        k(   18) = (  -0.0833333  -0.5833333   0.0833333), wk =   0.0555556
        k(   19) = (  -0.2500000   0.2500000   0.2500000), wk =   0.0185185
        k(   20) = (  -0.4166667   0.4166667   0.0833333), wk =   0.0555556
        k(   21) = (   0.4166667  -0.4166667   0.9166667), wk =   0.0555556
        k(   22) = (   0.2500000  -0.2500000   0.7500000), wk =   0.0555556
        k(   23) = (  -0.2500000   0.5833333   0.2500000), wk =   0.0555556
        k(   24) = (   0.5833333  -0.2500000   1.0833333), wk =   0.1111111
        k(   25) = (   0.4166667  -0.0833333   0.9166667), wk =   0.1111111
        k(   26) = (  -0.2500000  -1.0833333   0.2500000), wk =   0.0555556
        k(   27) = (  -0.4166667   0.4166667   0.4166667), wk =   0.0185185
        k(   28) = (   0.4166667  -0.4166667   1.2500000), wk =   0.0555556

     Dense  grid:     1917 G-vectors     FFT dimensions: (  20,  20,  20)

     Estimated max dynamical RAM per process >       1.57 MB

     Estimated total dynamical RAM >      12.53 MB

     Check: negative core charge=   -0.000090

     Initial potential from superposition of free atoms

     starting charge       7.9989, renormalised to       8.0000
     Starting wfcs are    8 randomized atomic wfcs
     Checking if some PAW data can be deallocated... 

     total cpu time spent up to now is        0.2 secs

     Self-consistent Calculation

     iteration #  1     ecut=    15.00 Ry     beta= 0.60
     Davidson diagonalization with overlap
     ethr =  1.00E-02,  avg # of iterations =  2.0

     Threshold (ethr) on eigenvalues was too large:
     Diagonalizing with lowered threshold

     Davidson diagonalization with overlap
     ethr =  7.07E-04,  avg # of iterations =  1.2

     total cpu time spent up to now is        0.3 secs

     total energy              =     -93.43841971 Ry
     estimated scf accuracy    <       0.06071102 Ry

     iteration #  2     ecut=    15.00 Ry     beta= 0.60
     Davidson diagonalization with overlap
     ethr =  7.59E-04,  avg # of iterations =  1.0

     total cpu time spent up to now is        0.4 secs

     total energy              =     -93.43953414 Ry
     estimated scf accuracy    <       0.00633382 Ry

     iteration #  3     ecut=    15.00 Ry     beta= 0.60
     Davidson diagonalization with overlap
     ethr =  7.92E-05,  avg # of iterations =  2.0

     total cpu time spent up to now is        0.5 secs

     total energy              =     -93.44063004 Ry
     estimated scf accuracy    <       0.00016017 Ry

     iteration #  4     ecut=    15.00 Ry     beta= 0.60
     Davidson diagonalization with overlap
     ethr =  2.00E-06,  avg # of iterations =  4.5

     total cpu time spent up to now is        0.6 secs

     total energy              =     -93.44074395 Ry
     estimated scf accuracy    <       0.00001146 Ry

     iteration #  5     ecut=    15.00 Ry     beta= 0.60
     Davidson diagonalization with overlap
     ethr =  1.43E-07,  avg # of iterations =  3.6

     total cpu time spent up to now is        0.6 secs

     End of self-consistent calculation

          k =-0.0833 0.0833 0.0833 (   259 PWs)   bands (ev):

    -5.3601   6.2028   6.9201   6.9201

          k =-0.2500 0.2500-0.0833 (   251 PWs)   bands (ev):

    -4.8488   4.0404   5.5762   6.7043

          k =-0.4167 0.4167-0.2500 (   248 PWs)   bands (ev):

    -3.6660   1.0759   5.1045   6.0160

          k = 0.4167-0.4167 0.5833 (   246 PWs)   bands (ev):

    -2.8859  -0.1789   5.1929   5.5984

          k = 0.2500-0.2500 0.4167 (   246 PWs)   bands (ev):

    -4.1149   1.9878   5.6516   5.7338

          k = 0.0833-0.0833 0.2500 (   255 PWs)   bands (ev):

    -5.1024   5.1140   6.2050   6.4494

          k =-0.0833 0.4167 0.0833 (   243 PWs)   bands (ev):

    -4.5906   3.9098   5.4144   5.4319

          k =-0.2500 0.5833-0.0833 (   245 PWs)   bands (ev):

    -3.6101   1.9636   3.9804   5.0024

          k = 0.5833-0.2500 0.7500 (   245 PWs)   bands (ev):

    -2.3775   0.0289   3.3630   4.7448

          k = 0.4167-0.0833 0.5833 (   246 PWs)   bands (ev):

    -3.1785   1.2039   3.2822   5.2860

          k = 0.2500 0.0833 0.4167 (   247 PWs)   bands (ev):

    -4.3472   2.9817   4.7388   6.0321

          k =-0.0833 0.7500 0.0833 (   242 PWs)   bands (ev):

    -2.8491   1.1369   3.9219   4.3060

          k = 0.7500-0.0833 0.9167 (   242 PWs)   bands (ev):

    -1.5508  -0.2931   2.9843   3.8481

          k = 0.5833 0.0833 0.7500 (   244 PWs)   bands (ev):

    -1.9271   0.0198   2.4706   4.4447

          k = 0.4167 0.2500 0.5833 (   247 PWs)   bands (ev):

    -3.0464   0.3963   4.3530   5.3973

          k =-0.0833-0.9167 0.0833 (   238 PWs)   bands (ev):

    -1.6612  -0.3074   3.6283   4.0751

          k =-0.2500-0.7500-0.0833 (   245 PWs)   bands (ev):

    -2.6610   0.8878   3.3547   4.2154

          k =-0.0833-0.5833 0.0833 (   245 PWs)   bands (ev):

    -3.8344   2.5783   4.5253   4.7595

          k =-0.2500 0.2500 0.2500 (   247 PWs)   bands (ev):

    -4.6015   2.9757   6.2593   6.2593

          k =-0.4167 0.4167 0.0833 (   251 PWs)   bands (ev):

    -3.8693   2.0388   3.9440   6.0830

          k = 0.4167-0.4167 0.9167 (   244 PWs)   bands (ev):

    -2.5840   0.5312   2.7289   5.2198

          k = 0.2500-0.2500 0.7500 (   242 PWs)   bands (ev):

    -2.5329   0.4484   3.2659   4.6915

          k =-0.2500 0.5833 0.2500 (   242 PWs)   bands (ev):

    -3.4092   1.1589   4.4964   5.0954

          k = 0.5833-0.2500 1.0833 (   245 PWs)   bands (ev):

    -2.3217   0.4490   2.8306   4.2037

          k = 0.4167-0.0833 0.9167 (   245 PWs)   bands (ev):

    -1.4190  -0.3015   2.6201   3.4673

          k =-0.2500-1.0833 0.2500 (   241 PWs)   bands (ev):

    -1.6432  -0.2275   2.4839   4.4818

          k =-0.4167 0.4167 0.4167 (   241 PWs)   bands (ev):

    -3.2988   0.2581   5.8482   5.8482

          k = 0.4167-0.4167 1.2500 (   248 PWs)   bands (ev):

    -2.6347  -0.0425   3.8882   5.3599

     highest occupied level (ev):     6.9201

!    total energy              =     -93.44074874 Ry
     total all-electron energy =     -1160.132479 Ry
     estimated scf accuracy    <       0.00000039 Ry

     The total energy is the sum of the following terms:
     one-electron contribution =       6.37086916 Ry
     hartree contribution      =       1.03211025 Ry
     xc contribution           =     -12.40852845 Ry
     ewald contribution        =     -17.23775379 Ry
     one-center paw contrib.   =     -71.19744591 Ry

     convergence has been achieved in   5 iterations

     Writing all to output data dir ./silicon.save/
 
     init_run     :      0.10s CPU      0.11s WALL (       1 calls)
     electrons    :      0.43s CPU      0.44s WALL (       1 calls)

     Called by init_run:
     wfcinit      :      0.00s CPU      0.01s WALL (       1 calls)
     potinit      :      0.08s CPU      0.08s WALL (       1 calls)
     hinit0       :      0.01s CPU      0.01s WALL (       1 calls)

     Called by electrons:
     c_bands      :      0.11s CPU      0.11s WALL (       6 calls)
     sum_band     :      0.02s CPU      0.02s WALL (       6 calls)
     v_of_rho     :      0.00s CPU      0.00s WALL (       6 calls)
     newd         :      0.00s CPU      0.00s WALL (       6 calls)
     PAW_pot      :      0.37s CPU      0.38s WALL (       6 calls)
     mix_rho      :      0.00s CPU      0.00s WALL (       6 calls)

     Called by c_bands:
     init_us_2    :      0.00s CPU      0.00s WALL (     364 calls)
     init_us_2:cp :      0.00s CPU      0.00s WALL (     364 calls)
     cegterg      :      0.09s CPU      0.09s WALL (     168 calls)

     Called by *egterg:
     cdiaghg      :      0.01s CPU      0.01s WALL (     542 calls)
     h_psi        :      0.06s CPU      0.06s WALL (     598 calls)
     s_psi        :      0.00s CPU      0.00s WALL (     598 calls)
     g_psi        :      0.00s CPU      0.00s WALL (     402 calls)

     Called by h_psi:
     h_psi:calbec :      0.01s CPU      0.01s WALL (     598 calls)
     vloc_psi     :      0.05s CPU      0.05s WALL (     598 calls)
     add_vuspsi   :      0.00s CPU      0.00s WALL (     598 calls)

     General routines
     calbec       :      0.01s CPU      0.01s WALL (     766 calls)
     fft          :      0.00s CPU      0.00s WALL (      67 calls)
     ffts         :      0.00s CPU      0.00s WALL (       6 calls)
     fftw         :      0.05s CPU      0.06s WALL (    4982 calls)
 
     Parallel routines
 
     PWSCF        :      0.59s CPU      0.64s WALL

 
   This run was terminated on:  17:34:26  13Mar2026            

=------------------------------------------------------------------------------=
   JOB DONE.
=------------------------------------------------------------------------------=
