
     Program PWSCF v.7.1 starts on 13Mar2026 at 17:34:26 

     This program is part of the open-source Quantum ESPRESSO suite
     for quantum simulation of materials; please cite
         "P. Giannozzi et al., J. Phys.:Condens. Matter 21 395502 (2009);
         "P. Giannozzi et al., J. Phys.:Condens. Matter 29 465901 (2017);
         "P. Giannozzi et al., J. Chem. Phys. 152 154105 (2020);
          URL http://www.quantum-espresso.org", 
     in publications or presentations arising from this work. More details at
     http://www.quantum-espresso.org/quote

     Parallel version (MPI), running on     8 processors

     MPI processes distributed on     1 nodes
     11566 MiB available memory on the printing compute node when the environment starts
 
     Waiting for input...
     Reading input from standard input

     Current dimensions of program PWSCF are:
     Max number of different atomic species (ntypx) = 10
     Max number of k-points (npk) =  40000
     Max angular momentum in pseudopotentials (lmaxx) =  4
     file Si.pbe-n-kjpaw_psl.1.0.0.UPF: wavefunction(s)  3S 3P renormalized
 
     R & G space division:  proc/nbgrp/npool/nimage =       8
     Subspace diagonalization in iterative solution of the eigenvalue problem:
     a serial algorithm will be used

 
     Parallelization info
     --------------------
     sticks:   dense  smooth     PW     G-vecs:    dense   smooth      PW
     Min          33      33     12                  371      371      80
     Max          35      35     13                  372      372      81
     Sum         271     271     97                 2975     2975     645
 
     Using Slab Decomposition
 


     bravais-lattice index     =            2
     lattice parameter (alat)  =      10.0000  a.u.
     unit-cell volume          =     250.0000 (a.u.)^3
     number of atoms/cell      =            2
     number of atomic types    =            1
     number of electrons       =         8.00
     number of Kohn-Sham states=            4
     kinetic-energy cutoff     =      20.0000  Ry
     charge density cutoff     =      80.0000  Ry
     scf convergence threshold =      1.0E-06
     mixing beta               =       0.6000
     number of iterations used =            8  plain     mixing
     Exchange-correlation= SLA  PW   PBX  PBC
                           (   1   4   3   4   0   0   0)

     celldm(1)=  10.000000  celldm(2)=   0.000000  celldm(3)=   0.000000
     celldm(4)=   0.000000  celldm(5)=   0.000000  celldm(6)=   0.000000

     crystal axes: (cart. coord. in units of alat)
               a(1) = (  -0.500000   0.000000   0.500000 )  
               a(2) = (   0.000000   0.500000   0.500000 )  
               a(3) = (  -0.500000   0.500000   0.000000 )  

     reciprocal axes: (cart. coord. in units 2 pi/alat)
               b(1) = ( -1.000000 -1.000000  1.000000 )  
               b(2) = (  1.000000  1.000000  1.000000 )  
               b(3) = ( -1.000000  1.000000 -1.000000 )  


     PseudoPot. # 1 for Si read from file:
     /home/karan/pseudos/Si.pbe-n-kjpaw_psl.1.0.0.UPF
     MD5 check sum: c39c59da582df4a0d9f10159256ea34e
     Pseudo is Projector augmented-wave + core cor, Zval =  4.0
     Generated using &quot;atomic&quot; code by A. Dal Corso  v.6.3
     Shape of augmentation charge: PSQ
     Using radial grid of 1141 points,  6 beta functions with: 
                l(1) =   0
                l(2) =   0
                l(3) =   1
                l(4) =   1
                l(5) =   2
                l(6) =   2
     Q(r) pseudized with 0 coefficients 


     atomic species   valence    mass     pseudopotential
        Si             4.00    28.08600     Si( 1.00)

     48 Sym. Ops., with inversion, found (24 have fractional translation)



   Cartesian axes

     site n.     atom                  positions (alat units)
         1           Si  tau(   1) = (   0.0000000   0.0000000   0.0000000  )
         2           Si  tau(   2) = (   0.2500000   0.2500000   0.2500000  )

     number of k points=    28
                       cart. coord. in units 2pi/alat
        k(    1) = (  -0.0833333   0.0833333   0.0833333), wk =   0.0185185
        k(    2) = (  -0.2500000   0.2500000  -0.0833333), wk =   0.0555556
        k(    3) = (  -0.4166667   0.4166667  -0.2500000), wk =   0.0555556
        k(    4) = (   0.4166667  -0.4166667   0.5833333), wk =   0.0555556
        k(    5) = (   0.2500000  -0.2500000   0.4166667), wk =   0.0555556
        k(    6) = (   0.0833333  -0.0833333   0.2500000), wk =   0.0555556
        k(    7) = (  -0.0833333   0.4166667   0.0833333), wk =   0.0555556
        k(    8) = (  -0.2500000   0.5833333  -0.0833333), wk =   0.1111111
        k(    9) = (   0.5833333  -0.2500000   0.7500000), wk =   0.1111111
        k(   10) = (   0.4166667  -0.0833333   0.5833333), wk =   0.1111111
        k(   11) = (   0.2500000   0.0833333   0.4166667), wk =   0.1111111
        k(   12) = (  -0.0833333   0.7500000   0.0833333), wk =   0.0555556
        k(   13) = (   0.7500000  -0.0833333   0.9166667), wk =   0.1111111
        k(   14) = (   0.5833333   0.0833333   0.7500000), wk =   0.1111111
        k(   15) = (   0.4166667   0.2500000   0.5833333), wk =   0.1111111
        k(   16) = (  -0.0833333  -0.9166667   0.0833333), wk =   0.0555556
        k(   17) = (  -0.2500000  -0.7500000  -0.0833333), wk =   0.1111111
        k(   18) = (  -0.0833333  -0.5833333   0.0833333), wk =   0.0555556
        k(   19) = (  -0.2500000   0.2500000   0.2500000), wk =   0.0185185
        k(   20) = (  -0.4166667   0.4166667   0.0833333), wk =   0.0555556
        k(   21) = (   0.4166667  -0.4166667   0.9166667), wk =   0.0555556
        k(   22) = (   0.2500000  -0.2500000   0.7500000), wk =   0.0555556
        k(   23) = (  -0.2500000   0.5833333   0.2500000), wk =   0.0555556
        k(   24) = (   0.5833333  -0.2500000   1.0833333), wk =   0.1111111
        k(   25) = (   0.4166667  -0.0833333   0.9166667), wk =   0.1111111
        k(   26) = (  -0.2500000  -1.0833333   0.2500000), wk =   0.0555556
        k(   27) = (  -0.4166667   0.4166667   0.4166667), wk =   0.0185185
        k(   28) = (   0.4166667  -0.4166667   1.2500000), wk =   0.0555556

     Dense  grid:     2975 G-vectors     FFT dimensions: (  24,  24,  24)

     Estimated max dynamical RAM per process >       2.17 MB

     Estimated total dynamical RAM >      17.35 MB

     Check: negative core charge=   -0.000008

     Initial potential from superposition of free atoms

     starting charge       7.9989, renormalised to       8.0000
     Starting wfcs are    8 randomized atomic wfcs
     Checking if some PAW data can be deallocated... 

     total cpu time spent up to now is        0.2 secs

     Self-consistent Calculation

     iteration #  1     ecut=    20.00 Ry     beta= 0.60
     Davidson diagonalization with overlap
     ethr =  1.00E-02,  avg # of iterations =  2.0

     Threshold (ethr) on eigenvalues was too large:
     Diagonalizing with lowered threshold

     Davidson diagonalization with overlap
     ethr =  7.08E-04,  avg # of iterations =  1.2

     total cpu time spent up to now is        0.3 secs

     total energy              =     -93.44012091 Ry
     estimated scf accuracy    <       0.06110348 Ry

     iteration #  2     ecut=    20.00 Ry     beta= 0.60
     Davidson diagonalization with overlap
     ethr =  7.64E-04,  avg # of iterations =  1.0

     total cpu time spent up to now is        0.4 secs

     total energy              =     -93.44119478 Ry
     estimated scf accuracy    <       0.00642164 Ry

     iteration #  3     ecut=    20.00 Ry     beta= 0.60
     Davidson diagonalization with overlap
     ethr =  8.03E-05,  avg # of iterations =  2.0

     total cpu time spent up to now is        0.4 secs

     total energy              =     -93.44239897 Ry
     estimated scf accuracy    <       0.00017802 Ry

     iteration #  4     ecut=    20.00 Ry     beta= 0.60
     Davidson diagonalization with overlap
     ethr =  2.23E-06,  avg # of iterations =  4.5

     total cpu time spent up to now is        0.5 secs

     total energy              =     -93.44252110 Ry
     estimated scf accuracy    <       0.00002180 Ry

     iteration #  5     ecut=    20.00 Ry     beta= 0.60
     Davidson diagonalization with overlap
     ethr =  2.72E-07,  avg # of iterations =  3.4

     total cpu time spent up to now is        0.6 secs

     End of self-consistent calculation

          k =-0.0833 0.0833 0.0833 (   363 PWs)   bands (ev):

    -5.3685   6.1867   6.9025   6.9025

          k =-0.2500 0.2500-0.0833 (   366 PWs)   bands (ev):

    -4.8570   4.0288   5.5618   6.6894

          k =-0.4167 0.4167-0.2500 (   374 PWs)   bands (ev):

    -3.6745   1.0673   5.0928   6.0044

          k = 0.4167-0.4167 0.5833 (   378 PWs)   bands (ev):

    -2.8952  -0.1868   5.1819   5.5879

          k = 0.2500-0.2500 0.4167 (   375 PWs)   bands (ev):

    -4.1233   1.9785   5.6387   5.7198

          k = 0.0833-0.0833 0.2500 (   370 PWs)   bands (ev):

    -5.1107   5.1005   6.1903   6.4329

          k =-0.0833 0.4167 0.0833 (   368 PWs)   bands (ev):

    -4.5988   3.8984   5.4015   5.4175

          k =-0.2500 0.5833-0.0833 (   376 PWs)   bands (ev):

    -3.6184   1.9550   3.9696   4.9907

          k = 0.5833-0.2500 0.7500 (   378 PWs)   bands (ev):

    -2.3858   0.0211   3.3525   4.7343

          k = 0.4167-0.0833 0.5833 (   381 PWs)   bands (ev):

    -3.1870   1.1952   3.2715   5.2738

          k = 0.2500 0.0833 0.4167 (   375 PWs)   bands (ev):

    -4.3556   2.9717   4.7255   6.0179

          k =-0.0833 0.7500 0.0833 (   375 PWs)   bands (ev):

    -2.8572   1.1287   3.9132   4.2979

          k = 0.7500-0.0833 0.9167 (   378 PWs)   bands (ev):

    -1.5584  -0.3009   2.9749   3.8394

          k = 0.5833 0.0833 0.7500 (   382 PWs)   bands (ev):

    -1.9353   0.0117   2.4608   4.4341

          k = 0.4167 0.2500 0.5833 (   377 PWs)   bands (ev):

    -3.0552   0.3881   4.3421   5.3860

          k =-0.0833-0.9167 0.0833 (   375 PWs)   bands (ev):

    -1.6687  -0.3153   3.6203   4.0679

          k =-0.2500-0.7500-0.0833 (   384 PWs)   bands (ev):

    -2.6694   0.8798   3.3448   4.2054

          k =-0.0833-0.5833 0.0833 (   370 PWs)   bands (ev):

    -3.8426   2.5692   4.5142   4.7497

          k =-0.2500 0.2500 0.2500 (   368 PWs)   bands (ev):

    -4.6099   2.9652   6.2447   6.2447

          k =-0.4167 0.4167 0.0833 (   375 PWs)   bands (ev):

    -3.8778   2.0295   3.9331   6.0697

          k = 0.4167-0.4167 0.9167 (   382 PWs)   bands (ev):

    -2.5927   0.5228   2.7191   5.2091

          k = 0.2500-0.2500 0.7500 (   377 PWs)   bands (ev):

    -2.5410   0.4402   3.2555   4.6824

          k =-0.2500 0.5833 0.2500 (   378 PWs)   bands (ev):

    -3.4178   1.1503   4.4838   5.0848

          k = 0.5833-0.2500 1.0833 (   383 PWs)   bands (ev):

    -2.3300   0.4409   2.8207   4.1926

          k = 0.4167-0.0833 0.9167 (   383 PWs)   bands (ev):

    -1.4269  -0.3092   2.6104   3.4567

          k =-0.2500-1.0833 0.2500 (   382 PWs)   bands (ev):

    -1.6510  -0.2354   2.4742   4.4730

          k =-0.4167 0.4167 0.4167 (   374 PWs)   bands (ev):

    -3.3081   0.2497   5.8375   5.8375

          k = 0.4167-0.4167 1.2500 (   379 PWs)   bands (ev):

    -2.6436  -0.0503   3.8775   5.3496

     highest occupied level (ev):     6.9025

!    total energy              =     -93.44252870 Ry
     total all-electron energy =     -1160.134259 Ry
     estimated scf accuracy    <       0.00000057 Ry

     The total energy is the sum of the following terms:
     one-electron contribution =       6.36878668 Ry
     hartree contribution      =       1.03176975 Ry
     xc contribution           =     -12.40600046 Ry
     ewald contribution        =     -17.23775378 Ry
     one-center paw contrib.   =     -71.19933089 Ry

     convergence has been achieved in   5 iterations

     Writing all to output data dir ./silicon.save/
 
     init_run     :      0.07s CPU      0.09s WALL (       1 calls)
     electrons    :      0.38s CPU      0.44s WALL (       1 calls)

     Called by init_run:
     wfcinit      :      0.01s CPU      0.01s WALL (       1 calls)
     potinit      :      0.05s CPU      0.06s WALL (       1 calls)
     hinit0       :      0.01s CPU      0.01s WALL (       1 calls)

     Called by electrons:
     c_bands      :      0.11s CPU      0.13s WALL (       6 calls)
     sum_band     :      0.02s CPU      0.03s WALL (       6 calls)
     v_of_rho     :      0.00s CPU      0.00s WALL (       6 calls)
     newd         :      0.01s CPU      0.01s WALL (       6 calls)
     PAW_pot      :      0.29s CPU      0.33s WALL (       6 calls)
     mix_rho      :      0.00s CPU      0.00s WALL (       6 calls)

     Called by c_bands:
     init_us_2    :      0.00s CPU      0.00s WALL (     364 calls)
     init_us_2:cp :      0.00s CPU      0.00s WALL (     364 calls)
     cegterg      :      0.08s CPU      0.09s WALL (     168 calls)

     Called by *egterg:
     cdiaghg      :      0.01s CPU      0.01s WALL (     536 calls)
     h_psi        :      0.06s CPU      0.07s WALL (     592 calls)
     s_psi        :      0.00s CPU      0.00s WALL (     592 calls)
     g_psi        :      0.00s CPU      0.00s WALL (     396 calls)

     Called by h_psi:
     h_psi:calbec :      0.01s CPU      0.01s WALL (     592 calls)
     vloc_psi     :      0.05s CPU      0.06s WALL (     592 calls)
     add_vuspsi   :      0.00s CPU      0.00s WALL (     592 calls)

     General routines
     calbec       :      0.01s CPU      0.01s WALL (     760 calls)
     fft          :      0.00s CPU      0.00s WALL (      67 calls)
     ffts         :      0.00s CPU      0.00s WALL (       6 calls)
     fftw         :      0.05s CPU      0.06s WALL (    4958 calls)
 
     Parallel routines
 
     PWSCF        :      0.54s CPU      0.63s WALL

 
   This run was terminated on:  17:34:27  13Mar2026            

=------------------------------------------------------------------------------=
   JOB DONE.
=------------------------------------------------------------------------------=
