
     Program PWSCF v.7.1 starts on 13Mar2026 at 17:34:31 

     This program is part of the open-source Quantum ESPRESSO suite
     for quantum simulation of materials; please cite
         "P. Giannozzi et al., J. Phys.:Condens. Matter 21 395502 (2009);
         "P. Giannozzi et al., J. Phys.:Condens. Matter 29 465901 (2017);
         "P. Giannozzi et al., J. Chem. Phys. 152 154105 (2020);
          URL http://www.quantum-espresso.org", 
     in publications or presentations arising from this work. More details at
     http://www.quantum-espresso.org/quote

     Parallel version (MPI), running on     8 processors

     MPI processes distributed on     1 nodes
     11576 MiB available memory on the printing compute node when the environment starts
 
     Waiting for input...
     Reading input from standard input

     Current dimensions of program PWSCF are:
     Max number of different atomic species (ntypx) = 10
     Max number of k-points (npk) =  40000
     Max angular momentum in pseudopotentials (lmaxx) =  4
     file Si.pbe-n-kjpaw_psl.1.0.0.UPF: wavefunction(s)  3S 3P renormalized
 
     R & G space division:  proc/nbgrp/npool/nimage =       8
     Subspace diagonalization in iterative solution of the eigenvalue problem:
     a serial algorithm will be used

 
     Parallelization info
     --------------------
     sticks:   dense  smooth     PW     G-vecs:    dense   smooth      PW
     Min          69      69     23                 1076     1076     198
     Max          70      70     24                 1077     1077     199
     Sum         559     559    187                 8609     8609    1591
 
     Using Slab Decomposition
 


     bravais-lattice index     =            2
     lattice parameter (alat)  =      10.0000  a.u.
     unit-cell volume          =     250.0000 (a.u.)^3
     number of atoms/cell      =            2
     number of atomic types    =            1
     number of electrons       =         8.00
     number of Kohn-Sham states=            4
     kinetic-energy cutoff     =      40.0000  Ry
     charge density cutoff     =     160.0000  Ry
     scf convergence threshold =      1.0E-06
     mixing beta               =       0.6000
     number of iterations used =            8  plain     mixing
     Exchange-correlation= SLA  PW   PBX  PBC
                           (   1   4   3   4   0   0   0)

     celldm(1)=  10.000000  celldm(2)=   0.000000  celldm(3)=   0.000000
     celldm(4)=   0.000000  celldm(5)=   0.000000  celldm(6)=   0.000000

     crystal axes: (cart. coord. in units of alat)
               a(1) = (  -0.500000   0.000000   0.500000 )  
               a(2) = (   0.000000   0.500000   0.500000 )  
               a(3) = (  -0.500000   0.500000   0.000000 )  

     reciprocal axes: (cart. coord. in units 2 pi/alat)
               b(1) = ( -1.000000 -1.000000  1.000000 )  
               b(2) = (  1.000000  1.000000  1.000000 )  
               b(3) = ( -1.000000  1.000000 -1.000000 )  


     PseudoPot. # 1 for Si read from file:
     /home/karan/pseudos/Si.pbe-n-kjpaw_psl.1.0.0.UPF
     MD5 check sum: c39c59da582df4a0d9f10159256ea34e
     Pseudo is Projector augmented-wave + core cor, Zval =  4.0
     Generated using &quot;atomic&quot; code by A. Dal Corso  v.6.3
     Shape of augmentation charge: PSQ
     Using radial grid of 1141 points,  6 beta functions with: 
                l(1) =   0
                l(2) =   0
                l(3) =   1
                l(4) =   1
                l(5) =   2
                l(6) =   2
     Q(r) pseudized with 0 coefficients 


     atomic species   valence    mass     pseudopotential
        Si             4.00    28.08600     Si( 1.00)

     48 Sym. Ops., with inversion, found (24 have fractional translation)



   Cartesian axes

     site n.     atom                  positions (alat units)
         1           Si  tau(   1) = (   0.0000000   0.0000000   0.0000000  )
         2           Si  tau(   2) = (   0.2500000   0.2500000   0.2500000  )

     number of k points=    28
                       cart. coord. in units 2pi/alat
        k(    1) = (  -0.0833333   0.0833333   0.0833333), wk =   0.0185185
        k(    2) = (  -0.2500000   0.2500000  -0.0833333), wk =   0.0555556
        k(    3) = (  -0.4166667   0.4166667  -0.2500000), wk =   0.0555556
        k(    4) = (   0.4166667  -0.4166667   0.5833333), wk =   0.0555556
        k(    5) = (   0.2500000  -0.2500000   0.4166667), wk =   0.0555556
        k(    6) = (   0.0833333  -0.0833333   0.2500000), wk =   0.0555556
        k(    7) = (  -0.0833333   0.4166667   0.0833333), wk =   0.0555556
        k(    8) = (  -0.2500000   0.5833333  -0.0833333), wk =   0.1111111
        k(    9) = (   0.5833333  -0.2500000   0.7500000), wk =   0.1111111
        k(   10) = (   0.4166667  -0.0833333   0.5833333), wk =   0.1111111
        k(   11) = (   0.2500000   0.0833333   0.4166667), wk =   0.1111111
        k(   12) = (  -0.0833333   0.7500000   0.0833333), wk =   0.0555556
        k(   13) = (   0.7500000  -0.0833333   0.9166667), wk =   0.1111111
        k(   14) = (   0.5833333   0.0833333   0.7500000), wk =   0.1111111
        k(   15) = (   0.4166667   0.2500000   0.5833333), wk =   0.1111111
        k(   16) = (  -0.0833333  -0.9166667   0.0833333), wk =   0.0555556
        k(   17) = (  -0.2500000  -0.7500000  -0.0833333), wk =   0.1111111
        k(   18) = (  -0.0833333  -0.5833333   0.0833333), wk =   0.0555556
        k(   19) = (  -0.2500000   0.2500000   0.2500000), wk =   0.0185185
        k(   20) = (  -0.4166667   0.4166667   0.0833333), wk =   0.0555556
        k(   21) = (   0.4166667  -0.4166667   0.9166667), wk =   0.0555556
        k(   22) = (   0.2500000  -0.2500000   0.7500000), wk =   0.0555556
        k(   23) = (  -0.2500000   0.5833333   0.2500000), wk =   0.0555556
        k(   24) = (   0.5833333  -0.2500000   1.0833333), wk =   0.1111111
        k(   25) = (   0.4166667  -0.0833333   0.9166667), wk =   0.1111111
        k(   26) = (  -0.2500000  -1.0833333   0.2500000), wk =   0.0555556
        k(   27) = (  -0.4166667   0.4166667   0.4166667), wk =   0.0185185
        k(   28) = (   0.4166667  -0.4166667   1.2500000), wk =   0.0555556

     Dense  grid:     8609 G-vectors     FFT dimensions: (  32,  32,  32)

     Estimated max dynamical RAM per process >       5.14 MB

     Estimated total dynamical RAM >      41.12 MB

     Check: negative core charge=   -0.000003

     Initial potential from superposition of free atoms

     starting charge       7.9989, renormalised to       8.0000
     Starting wfcs are    8 randomized atomic wfcs
     Checking if some PAW data can be deallocated... 

     total cpu time spent up to now is        0.2 secs

     Self-consistent Calculation

     iteration #  1     ecut=    40.00 Ry     beta= 0.60
     Davidson diagonalization with overlap
     ethr =  1.00E-02,  avg # of iterations =  2.0

     Threshold (ethr) on eigenvalues was too large:
     Diagonalizing with lowered threshold

     Davidson diagonalization with overlap
     ethr =  7.10E-04,  avg # of iterations =  1.2

     total cpu time spent up to now is        0.3 secs

     total energy              =     -93.44234224 Ry
     estimated scf accuracy    <       0.06116928 Ry

     iteration #  2     ecut=    40.00 Ry     beta= 0.60
     Davidson diagonalization with overlap
     ethr =  7.65E-04,  avg # of iterations =  1.0

     total cpu time spent up to now is        0.4 secs

     total energy              =     -93.44340447 Ry
     estimated scf accuracy    <       0.00646491 Ry

     iteration #  3     ecut=    40.00 Ry     beta= 0.60
     Davidson diagonalization with overlap
     ethr =  8.08E-05,  avg # of iterations =  2.1

     total cpu time spent up to now is        0.5 secs

     total energy              =     -93.44464447 Ry
     estimated scf accuracy    <       0.00018857 Ry

     iteration #  4     ecut=    40.00 Ry     beta= 0.60
     Davidson diagonalization with overlap
     ethr =  2.36E-06,  avg # of iterations =  4.0

     total cpu time spent up to now is        0.7 secs

     total energy              =     -93.44474618 Ry
     estimated scf accuracy    <       0.00003710 Ry

     iteration #  5     ecut=    40.00 Ry     beta= 0.60
     Davidson diagonalization with overlap
     ethr =  4.64E-07,  avg # of iterations =  2.8

     total cpu time spent up to now is        0.8 secs

     End of self-consistent calculation

          k =-0.0833 0.0833 0.0833 (  1049 PWs)   bands (ev):

    -5.3724   6.1791   6.8932   6.8932

          k =-0.2500 0.2500-0.0833 (  1059 PWs)   bands (ev):

    -4.8608   4.0232   5.5556   6.6820

          k =-0.4167 0.4167-0.2500 (  1066 PWs)   bands (ev):

    -3.6777   1.0645   5.0880   5.9991

          k = 0.4167-0.4167 0.5833 (  1074 PWs)   bands (ev):

    -2.8980  -0.1890   5.1773   5.5834

          k = 0.2500-0.2500 0.4167 (  1071 PWs)   bands (ev):

    -4.1266   1.9754   5.6336   5.7144

          k = 0.0833-0.0833 0.2500 (  1047 PWs)   bands (ev):

    -5.1144   5.0942   6.1836   6.4258

          k =-0.0833 0.4167 0.0833 (  1060 PWs)   bands (ev):

    -4.6025   3.8931   5.3959   5.4122

          k =-0.2500 0.5833-0.0833 (  1061 PWs)   bands (ev):

    -3.6215   1.9513   3.9660   4.9863

          k = 0.5833-0.2500 0.7500 (  1071 PWs)   bands (ev):

    -2.3890   0.0184   3.3490   4.7306

          k = 0.4167-0.0833 0.5833 (  1068 PWs)   bands (ev):

    -3.1900   1.1921   3.2684   5.2696

          k = 0.2500 0.0833 0.4167 (  1066 PWs)   bands (ev):

    -4.3590   2.9673   4.7212   6.0122

          k =-0.0833 0.7500 0.0833 (  1061 PWs)   bands (ev):

    -2.8601   1.1251   3.9103   4.2951

          k = 0.7500-0.0833 0.9167 (  1074 PWs)   bands (ev):

    -1.5617  -0.3042   2.9723   3.8365

          k = 0.5833 0.0833 0.7500 (  1077 PWs)   bands (ev):

    -1.9384   0.0087   2.4583   4.4307

          k = 0.4167 0.2500 0.5833 (  1069 PWs)   bands (ev):

    -3.0581   0.3855   4.3381   5.3817

          k =-0.0833-0.9167 0.0833 (  1070 PWs)   bands (ev):

    -1.6721  -0.3187   3.6175   4.0655

          k =-0.2500-0.7500-0.0833 (  1069 PWs)   bands (ev):

    -2.6722   0.8765   3.3420   4.2025

          k =-0.0833-0.5833 0.0833 (  1058 PWs)   bands (ev):

    -3.8458   2.5647   4.5104   4.7461

          k =-0.2500 0.2500 0.2500 (  1074 PWs)   bands (ev):

    -4.6134   2.9617   6.2378   6.2378

          k =-0.4167 0.4167 0.0833 (  1068 PWs)   bands (ev):

    -3.8809   2.0262   3.9294   6.0644

          k = 0.4167-0.4167 0.9167 (  1072 PWs)   bands (ev):

    -2.5956   0.5198   2.7161   5.2051

          k = 0.2500-0.2500 0.7500 (  1076 PWs)   bands (ev):

    -2.5443   0.4373   3.2522   4.6791

          k =-0.2500 0.5833 0.2500 (  1070 PWs)   bands (ev):

    -3.4209   1.1474   4.4796   5.0812

          k = 0.5833-0.2500 1.0833 (  1070 PWs)   bands (ev):

    -2.3330   0.4378   2.8180   4.1892

          k = 0.4167-0.0833 0.9167 (  1069 PWs)   bands (ev):

    -1.4301  -0.3124   2.6079   3.4537

          k =-0.2500-1.0833 0.2500 (  1074 PWs)   bands (ev):

    -1.6542  -0.2385   2.4717   4.4700

          k =-0.4167 0.4167 0.4167 (  1062 PWs)   bands (ev):

    -3.3109   0.2474   5.8323   5.8323

          k = 0.4167-0.4167 1.2500 (  1076 PWs)   bands (ev):

    -2.6465  -0.0528   3.8738   5.3454

     highest occupied level (ev):     6.8932

!    total energy              =     -93.44475599 Ry
     total all-electron energy =     -1160.136486 Ry
     estimated scf accuracy    <       0.00000057 Ry

     The total energy is the sum of the following terms:
     one-electron contribution =       6.36738539 Ry
     hartree contribution      =       1.03249427 Ry
     xc contribution           =     -12.40617106 Ry
     ewald contribution        =     -17.23775378 Ry
     one-center paw contrib.   =     -71.20071083 Ry

     convergence has been achieved in   5 iterations

     Writing all to output data dir ./silicon.save/
 
     init_run     :      0.06s CPU      0.10s WALL (       1 calls)
     electrons    :      0.55s CPU      0.60s WALL (       1 calls)

     Called by init_run:
     wfcinit      :      0.01s CPU      0.01s WALL (       1 calls)
     potinit      :      0.03s CPU      0.05s WALL (       1 calls)
     hinit0       :      0.01s CPU      0.02s WALL (       1 calls)

     Called by electrons:
     c_bands      :      0.22s CPU      0.22s WALL (       6 calls)
     sum_band     :      0.06s CPU      0.07s WALL (       6 calls)
     v_of_rho     :      0.01s CPU      0.01s WALL (       6 calls)
     newd         :      0.02s CPU      0.03s WALL (       6 calls)
     PAW_pot      :      0.28s CPU      0.33s WALL (       6 calls)
     mix_rho      :      0.00s CPU      0.00s WALL (       6 calls)

     Called by c_bands:
     init_us_2    :      0.01s CPU      0.01s WALL (     364 calls)
     init_us_2:cp :      0.01s CPU      0.01s WALL (     364 calls)
     cegterg      :      0.12s CPU      0.12s WALL (     168 calls)

     Called by *egterg:
     cdiaghg      :      0.01s CPU      0.01s WALL (     507 calls)
     h_psi        :      0.09s CPU      0.10s WALL (     563 calls)
     s_psi        :      0.00s CPU      0.00s WALL (     563 calls)
     g_psi        :      0.00s CPU      0.00s WALL (     367 calls)

     Called by h_psi:
     h_psi:calbec :      0.01s CPU      0.01s WALL (     563 calls)
     vloc_psi     :      0.08s CPU      0.08s WALL (     563 calls)
     add_vuspsi   :      0.00s CPU      0.00s WALL (     563 calls)

     General routines
     calbec       :      0.01s CPU      0.01s WALL (     731 calls)
     fft          :      0.00s CPU      0.00s WALL (      67 calls)
     ffts         :      0.00s CPU      0.00s WALL (       6 calls)
     fftw         :      0.08s CPU      0.08s WALL (    4870 calls)
 
     Parallel routines
 
     PWSCF        :      0.68s CPU      0.80s WALL

 
   This run was terminated on:  17:34:32  13Mar2026            

=------------------------------------------------------------------------------=
   JOB DONE.
=------------------------------------------------------------------------------=
