
     Program PWSCF v.7.1 starts on 13Mar2026 at 17:34:27 

     This program is part of the open-source Quantum ESPRESSO suite
     for quantum simulation of materials; please cite
         "P. Giannozzi et al., J. Phys.:Condens. Matter 21 395502 (2009);
         "P. Giannozzi et al., J. Phys.:Condens. Matter 29 465901 (2017);
         "P. Giannozzi et al., J. Chem. Phys. 152 154105 (2020);
          URL http://www.quantum-espresso.org", 
     in publications or presentations arising from this work. More details at
     http://www.quantum-espresso.org/quote

     Parallel version (MPI), running on     8 processors

     MPI processes distributed on     1 nodes
     11573 MiB available memory on the printing compute node when the environment starts
 
     Waiting for input...
     Reading input from standard input

     Current dimensions of program PWSCF are:
     Max number of different atomic species (ntypx) = 10
     Max number of k-points (npk) =  40000
     Max angular momentum in pseudopotentials (lmaxx) =  4
     file Si.pbe-n-kjpaw_psl.1.0.0.UPF: wavefunction(s)  3S 3P renormalized
 
     R & G space division:  proc/nbgrp/npool/nimage =       8
     Subspace diagonalization in iterative solution of the eigenvalue problem:
     a serial algorithm will be used

 
     Parallelization info
     --------------------
     sticks:   dense  smooth     PW     G-vecs:    dense   smooth      PW
     Min          43      43     15                  533      533     108
     Max          44      44     16                  536      536     110
     Sum         349     349    121                 4279     4279     869
 
     Using Slab Decomposition
 


     bravais-lattice index     =            2
     lattice parameter (alat)  =      10.0000  a.u.
     unit-cell volume          =     250.0000 (a.u.)^3
     number of atoms/cell      =            2
     number of atomic types    =            1
     number of electrons       =         8.00
     number of Kohn-Sham states=            4
     kinetic-energy cutoff     =      25.0000  Ry
     charge density cutoff     =     100.0000  Ry
     scf convergence threshold =      1.0E-06
     mixing beta               =       0.6000
     number of iterations used =            8  plain     mixing
     Exchange-correlation= SLA  PW   PBX  PBC
                           (   1   4   3   4   0   0   0)

     celldm(1)=  10.000000  celldm(2)=   0.000000  celldm(3)=   0.000000
     celldm(4)=   0.000000  celldm(5)=   0.000000  celldm(6)=   0.000000

     crystal axes: (cart. coord. in units of alat)
               a(1) = (  -0.500000   0.000000   0.500000 )  
               a(2) = (   0.000000   0.500000   0.500000 )  
               a(3) = (  -0.500000   0.500000   0.000000 )  

     reciprocal axes: (cart. coord. in units 2 pi/alat)
               b(1) = ( -1.000000 -1.000000  1.000000 )  
               b(2) = (  1.000000  1.000000  1.000000 )  
               b(3) = ( -1.000000  1.000000 -1.000000 )  


     PseudoPot. # 1 for Si read from file:
     /home/karan/pseudos/Si.pbe-n-kjpaw_psl.1.0.0.UPF
     MD5 check sum: c39c59da582df4a0d9f10159256ea34e
     Pseudo is Projector augmented-wave + core cor, Zval =  4.0
     Generated using &quot;atomic&quot; code by A. Dal Corso  v.6.3
     Shape of augmentation charge: PSQ
     Using radial grid of 1141 points,  6 beta functions with: 
                l(1) =   0
                l(2) =   0
                l(3) =   1
                l(4) =   1
                l(5) =   2
                l(6) =   2
     Q(r) pseudized with 0 coefficients 


     atomic species   valence    mass     pseudopotential
        Si             4.00    28.08600     Si( 1.00)

     48 Sym. Ops., with inversion, found (24 have fractional translation)



   Cartesian axes

     site n.     atom                  positions (alat units)
         1           Si  tau(   1) = (   0.0000000   0.0000000   0.0000000  )
         2           Si  tau(   2) = (   0.2500000   0.2500000   0.2500000  )

     number of k points=    28
                       cart. coord. in units 2pi/alat
        k(    1) = (  -0.0833333   0.0833333   0.0833333), wk =   0.0185185
        k(    2) = (  -0.2500000   0.2500000  -0.0833333), wk =   0.0555556
        k(    3) = (  -0.4166667   0.4166667  -0.2500000), wk =   0.0555556
        k(    4) = (   0.4166667  -0.4166667   0.5833333), wk =   0.0555556
        k(    5) = (   0.2500000  -0.2500000   0.4166667), wk =   0.0555556
        k(    6) = (   0.0833333  -0.0833333   0.2500000), wk =   0.0555556
        k(    7) = (  -0.0833333   0.4166667   0.0833333), wk =   0.0555556
        k(    8) = (  -0.2500000   0.5833333  -0.0833333), wk =   0.1111111
        k(    9) = (   0.5833333  -0.2500000   0.7500000), wk =   0.1111111
        k(   10) = (   0.4166667  -0.0833333   0.5833333), wk =   0.1111111
        k(   11) = (   0.2500000   0.0833333   0.4166667), wk =   0.1111111
        k(   12) = (  -0.0833333   0.7500000   0.0833333), wk =   0.0555556
        k(   13) = (   0.7500000  -0.0833333   0.9166667), wk =   0.1111111
        k(   14) = (   0.5833333   0.0833333   0.7500000), wk =   0.1111111
        k(   15) = (   0.4166667   0.2500000   0.5833333), wk =   0.1111111
        k(   16) = (  -0.0833333  -0.9166667   0.0833333), wk =   0.0555556
        k(   17) = (  -0.2500000  -0.7500000  -0.0833333), wk =   0.1111111
        k(   18) = (  -0.0833333  -0.5833333   0.0833333), wk =   0.0555556
        k(   19) = (  -0.2500000   0.2500000   0.2500000), wk =   0.0185185
        k(   20) = (  -0.4166667   0.4166667   0.0833333), wk =   0.0555556
        k(   21) = (   0.4166667  -0.4166667   0.9166667), wk =   0.0555556
        k(   22) = (   0.2500000  -0.2500000   0.7500000), wk =   0.0555556
        k(   23) = (  -0.2500000   0.5833333   0.2500000), wk =   0.0555556
        k(   24) = (   0.5833333  -0.2500000   1.0833333), wk =   0.1111111
        k(   25) = (   0.4166667  -0.0833333   0.9166667), wk =   0.1111111
        k(   26) = (  -0.2500000  -1.0833333   0.2500000), wk =   0.0555556
        k(   27) = (  -0.4166667   0.4166667   0.4166667), wk =   0.0185185
        k(   28) = (   0.4166667  -0.4166667   1.2500000), wk =   0.0555556

     Dense  grid:     4279 G-vectors     FFT dimensions: (  24,  24,  24)

     Estimated max dynamical RAM per process >       2.84 MB

     Estimated total dynamical RAM >      22.69 MB

     Check: negative core charge=   -0.000014

     Initial potential from superposition of free atoms

     starting charge       7.9989, renormalised to       8.0000
     Starting wfcs are    8 randomized atomic wfcs
     Checking if some PAW data can be deallocated... 

     total cpu time spent up to now is        0.2 secs

     Self-consistent Calculation

     iteration #  1     ecut=    25.00 Ry     beta= 0.60
     Davidson diagonalization with overlap
     ethr =  1.00E-02,  avg # of iterations =  2.0

     Threshold (ethr) on eigenvalues was too large:
     Diagonalizing with lowered threshold

     Davidson diagonalization with overlap
     ethr =  7.09E-04,  avg # of iterations =  1.3

     total cpu time spent up to now is        0.3 secs

     total energy              =     -93.44182222 Ry
     estimated scf accuracy    <       0.06120919 Ry

     iteration #  2     ecut=    25.00 Ry     beta= 0.60
     Davidson diagonalization with overlap
     ethr =  7.65E-04,  avg # of iterations =  1.0

     total cpu time spent up to now is        0.4 secs

     total energy              =     -93.44286415 Ry
     estimated scf accuracy    <       0.00647598 Ry

     iteration #  3     ecut=    25.00 Ry     beta= 0.60
     Davidson diagonalization with overlap
     ethr =  8.09E-05,  avg # of iterations =  2.0

     total cpu time spent up to now is        0.5 secs

     total energy              =     -93.44409502 Ry
     estimated scf accuracy    <       0.00018321 Ry

     iteration #  4     ecut=    25.00 Ry     beta= 0.60
     Davidson diagonalization with overlap
     ethr =  2.29E-06,  avg # of iterations =  4.2

     total cpu time spent up to now is        0.6 secs

     total energy              =     -93.44420968 Ry
     estimated scf accuracy    <       0.00002917 Ry

     iteration #  5     ecut=    25.00 Ry     beta= 0.60
     Davidson diagonalization with overlap
     ethr =  3.65E-07,  avg # of iterations =  3.2

     total cpu time spent up to now is        0.7 secs

     End of self-consistent calculation

          k =-0.0833 0.0833 0.0833 (   534 PWs)   bands (ev):

    -5.3710   6.1811   6.8952   6.8952

          k =-0.2500 0.2500-0.0833 (   534 PWs)   bands (ev):

    -4.8593   4.0253   5.5577   6.6840

          k =-0.4167 0.4167-0.2500 (   527 PWs)   bands (ev):

    -3.6759   1.0665   5.0898   6.0010

          k = 0.4167-0.4167 0.5833 (   535 PWs)   bands (ev):

    -2.8962  -0.1871   5.1791   5.5851

          k = 0.2500-0.2500 0.4167 (   531 PWs)   bands (ev):

    -4.1248   1.9774   5.6355   5.7162

          k = 0.0833-0.0833 0.2500 (   535 PWs)   bands (ev):

    -5.1130   5.0963   6.1857   6.4279

          k =-0.0833 0.4167 0.0833 (   536 PWs)   bands (ev):

    -4.6010   3.8949   5.3978   5.4142

          k =-0.2500 0.5833-0.0833 (   529 PWs)   bands (ev):

    -3.6198   1.9532   3.9680   4.9882

          k = 0.5833-0.2500 0.7500 (   531 PWs)   bands (ev):

    -2.3872   0.0203   3.3510   4.7323

          k = 0.4167-0.0833 0.5833 (   528 PWs)   bands (ev):

    -3.1882   1.1940   3.2704   5.2715

          k = 0.2500 0.0833 0.4167 (   531 PWs)   bands (ev):

    -4.3574   2.9693   4.7232   6.0140

          k =-0.0833 0.7500 0.0833 (   529 PWs)   bands (ev):

    -2.8583   1.1269   3.9121   4.2968

          k = 0.7500-0.0833 0.9167 (   519 PWs)   bands (ev):

    -1.5597  -0.3023   2.9743   3.8384

          k = 0.5833 0.0833 0.7500 (   522 PWs)   bands (ev):

    -1.9364   0.0107   2.4603   4.4326

          k = 0.4167 0.2500 0.5833 (   530 PWs)   bands (ev):

    -3.0563   0.3874   4.3400   5.3834

          k =-0.0833-0.9167 0.0833 (   520 PWs)   bands (ev):

    -1.6702  -0.3168   3.6193   4.0671

          k =-0.2500-0.7500-0.0833 (   526 PWs)   bands (ev):

    -2.6704   0.8784   3.3439   4.2044

          k =-0.0833-0.5833 0.0833 (   530 PWs)   bands (ev):

    -3.8441   2.5665   4.5123   4.7479

          k =-0.2500 0.2500 0.2500 (   531 PWs)   bands (ev):

    -4.6118   2.9637   6.2397   6.2397

          k =-0.4167 0.4167 0.0833 (   526 PWs)   bands (ev):

    -3.8791   2.0282   3.9314   6.0663

          k = 0.4167-0.4167 0.9167 (   530 PWs)   bands (ev):

    -2.5938   0.5218   2.7182   5.2069

          k = 0.2500-0.2500 0.7500 (   529 PWs)   bands (ev):

    -2.5425   0.4392   3.2542   4.6808

          k =-0.2500 0.5833 0.2500 (   531 PWs)   bands (ev):

    -3.4190   1.1493   4.4815   5.0829

          k = 0.5833-0.2500 1.0833 (   526 PWs)   bands (ev):

    -2.3311   0.4397   2.8200   4.1912

          k = 0.4167-0.0833 0.9167 (   521 PWs)   bands (ev):

    -1.4281  -0.3105   2.6099   3.4557

          k =-0.2500-1.0833 0.2500 (   524 PWs)   bands (ev):

    -1.6523  -0.2366   2.4738   4.4717

          k =-0.4167 0.4167 0.4167 (   529 PWs)   bands (ev):

    -3.3092   0.2493   5.8341   5.8341

          k = 0.4167-0.4167 1.2500 (   527 PWs)   bands (ev):

    -2.6446  -0.0509   3.8757   5.3472

     highest occupied level (ev):     6.8952

!    total energy              =     -93.44421938 Ry
     total all-electron energy =     -1160.135949 Ry
     estimated scf accuracy    <       0.00000075 Ry

     The total energy is the sum of the following terms:
     one-electron contribution =       6.36758704 Ry
     hartree contribution      =       1.03233801 Ry
     xc contribution           =     -12.40613199 Ry
     ewald contribution        =     -17.23775376 Ry
     one-center paw contrib.   =     -71.20025868 Ry

     convergence has been achieved in   5 iterations

     Writing all to output data dir ./silicon.save/
 
     init_run     :      0.07s CPU      0.09s WALL (       1 calls)
     electrons    :      0.45s CPU      0.51s WALL (       1 calls)

     Called by init_run:
     wfcinit      :      0.01s CPU      0.01s WALL (       1 calls)
     potinit      :      0.05s CPU      0.06s WALL (       1 calls)
     hinit0       :      0.01s CPU      0.01s WALL (       1 calls)

     Called by electrons:
     c_bands      :      0.15s CPU      0.16s WALL (       6 calls)
     sum_band     :      0.03s CPU      0.04s WALL (       6 calls)
     v_of_rho     :      0.00s CPU      0.00s WALL (       6 calls)
     newd         :      0.01s CPU      0.01s WALL (       6 calls)
     PAW_pot      :      0.30s CPU      0.35s WALL (       6 calls)
     mix_rho      :      0.00s CPU      0.00s WALL (       6 calls)

     Called by c_bands:
     init_us_2    :      0.00s CPU      0.01s WALL (     364 calls)
     init_us_2:cp :      0.00s CPU      0.00s WALL (     364 calls)
     cegterg      :      0.09s CPU      0.10s WALL (     168 calls)

     Called by *egterg:
     cdiaghg      :      0.01s CPU      0.01s WALL (     524 calls)
     h_psi        :      0.07s CPU      0.08s WALL (     580 calls)
     s_psi        :      0.00s CPU      0.00s WALL (     580 calls)
     g_psi        :      0.00s CPU      0.00s WALL (     384 calls)

     Called by h_psi:
     h_psi:calbec :      0.01s CPU      0.01s WALL (     580 calls)
     vloc_psi     :      0.06s CPU      0.07s WALL (     580 calls)
     add_vuspsi   :      0.00s CPU      0.00s WALL (     580 calls)

     General routines
     calbec       :      0.01s CPU      0.01s WALL (     748 calls)
     fft          :      0.00s CPU      0.00s WALL (      67 calls)
     ffts         :      0.00s CPU      0.00s WALL (       6 calls)
     fftw         :      0.06s CPU      0.07s WALL (    4926 calls)
 
     Parallel routines
 
     PWSCF        :      0.58s CPU      0.68s WALL

 
   This run was terminated on:  17:34:28  13Mar2026            

=------------------------------------------------------------------------------=
   JOB DONE.
=------------------------------------------------------------------------------=
