
     Program PWSCF v.7.1 starts on 13Mar2026 at 17:34:29 

     This program is part of the open-source Quantum ESPRESSO suite
     for quantum simulation of materials; please cite
         "P. Giannozzi et al., J. Phys.:Condens. Matter 21 395502 (2009);
         "P. Giannozzi et al., J. Phys.:Condens. Matter 29 465901 (2017);
         "P. Giannozzi et al., J. Chem. Phys. 152 154105 (2020);
          URL http://www.quantum-espresso.org", 
     in publications or presentations arising from this work. More details at
     http://www.quantum-espresso.org/quote

     Parallel version (MPI), running on     8 processors

     MPI processes distributed on     1 nodes
     11583 MiB available memory on the printing compute node when the environment starts
 
     Waiting for input...
     Reading input from standard input

     Current dimensions of program PWSCF are:
     Max number of different atomic species (ntypx) = 10
     Max number of k-points (npk) =  40000
     Max angular momentum in pseudopotentials (lmaxx) =  4
     file Si.pbe-n-kjpaw_psl.1.0.0.UPF: wavefunction(s)  3S 3P renormalized
 
     R & G space division:  proc/nbgrp/npool/nimage =       8
     Subspace diagonalization in iterative solution of the eigenvalue problem:
     a serial algorithm will be used

 
     Parallelization info
     --------------------
     sticks:   dense  smooth     PW     G-vecs:    dense   smooth      PW
     Min          52      52     17                  696      696     132
     Max          53      53     18                  698      698     134
     Sum         421     421    139                 5577     5577    1067
 
     Using Slab Decomposition
 


     bravais-lattice index     =            2
     lattice parameter (alat)  =      10.0000  a.u.
     unit-cell volume          =     250.0000 (a.u.)^3
     number of atoms/cell      =            2
     number of atomic types    =            1
     number of electrons       =         8.00
     number of Kohn-Sham states=            4
     kinetic-energy cutoff     =      30.0000  Ry
     charge density cutoff     =     120.0000  Ry
     scf convergence threshold =      1.0E-06
     mixing beta               =       0.6000
     number of iterations used =            8  plain     mixing
     Exchange-correlation= SLA  PW   PBX  PBC
                           (   1   4   3   4   0   0   0)

     celldm(1)=  10.000000  celldm(2)=   0.000000  celldm(3)=   0.000000
     celldm(4)=   0.000000  celldm(5)=   0.000000  celldm(6)=   0.000000

     crystal axes: (cart. coord. in units of alat)
               a(1) = (  -0.500000   0.000000   0.500000 )  
               a(2) = (   0.000000   0.500000   0.500000 )  
               a(3) = (  -0.500000   0.500000   0.000000 )  

     reciprocal axes: (cart. coord. in units 2 pi/alat)
               b(1) = ( -1.000000 -1.000000  1.000000 )  
               b(2) = (  1.000000  1.000000  1.000000 )  
               b(3) = ( -1.000000  1.000000 -1.000000 )  


     PseudoPot. # 1 for Si read from file:
     /home/karan/pseudos/Si.pbe-n-kjpaw_psl.1.0.0.UPF
     MD5 check sum: c39c59da582df4a0d9f10159256ea34e
     Pseudo is Projector augmented-wave + core cor, Zval =  4.0
     Generated using &quot;atomic&quot; code by A. Dal Corso  v.6.3
     Shape of augmentation charge: PSQ
     Using radial grid of 1141 points,  6 beta functions with: 
                l(1) =   0
                l(2) =   0
                l(3) =   1
                l(4) =   1
                l(5) =   2
                l(6) =   2
     Q(r) pseudized with 0 coefficients 


     atomic species   valence    mass     pseudopotential
        Si             4.00    28.08600     Si( 1.00)

     48 Sym. Ops., with inversion, found (24 have fractional translation)



   Cartesian axes

     site n.     atom                  positions (alat units)
         1           Si  tau(   1) = (   0.0000000   0.0000000   0.0000000  )
         2           Si  tau(   2) = (   0.2500000   0.2500000   0.2500000  )

     number of k points=    28
                       cart. coord. in units 2pi/alat
        k(    1) = (  -0.0833333   0.0833333   0.0833333), wk =   0.0185185
        k(    2) = (  -0.2500000   0.2500000  -0.0833333), wk =   0.0555556
        k(    3) = (  -0.4166667   0.4166667  -0.2500000), wk =   0.0555556
        k(    4) = (   0.4166667  -0.4166667   0.5833333), wk =   0.0555556
        k(    5) = (   0.2500000  -0.2500000   0.4166667), wk =   0.0555556
        k(    6) = (   0.0833333  -0.0833333   0.2500000), wk =   0.0555556
        k(    7) = (  -0.0833333   0.4166667   0.0833333), wk =   0.0555556
        k(    8) = (  -0.2500000   0.5833333  -0.0833333), wk =   0.1111111
        k(    9) = (   0.5833333  -0.2500000   0.7500000), wk =   0.1111111
        k(   10) = (   0.4166667  -0.0833333   0.5833333), wk =   0.1111111
        k(   11) = (   0.2500000   0.0833333   0.4166667), wk =   0.1111111
        k(   12) = (  -0.0833333   0.7500000   0.0833333), wk =   0.0555556
        k(   13) = (   0.7500000  -0.0833333   0.9166667), wk =   0.1111111
        k(   14) = (   0.5833333   0.0833333   0.7500000), wk =   0.1111111
        k(   15) = (   0.4166667   0.2500000   0.5833333), wk =   0.1111111
        k(   16) = (  -0.0833333  -0.9166667   0.0833333), wk =   0.0555556
        k(   17) = (  -0.2500000  -0.7500000  -0.0833333), wk =   0.1111111
        k(   18) = (  -0.0833333  -0.5833333   0.0833333), wk =   0.0555556
        k(   19) = (  -0.2500000   0.2500000   0.2500000), wk =   0.0185185
        k(   20) = (  -0.4166667   0.4166667   0.0833333), wk =   0.0555556
        k(   21) = (   0.4166667  -0.4166667   0.9166667), wk =   0.0555556
        k(   22) = (   0.2500000  -0.2500000   0.7500000), wk =   0.0555556
        k(   23) = (  -0.2500000   0.5833333   0.2500000), wk =   0.0555556
        k(   24) = (   0.5833333  -0.2500000   1.0833333), wk =   0.1111111
        k(   25) = (   0.4166667  -0.0833333   0.9166667), wk =   0.1111111
        k(   26) = (  -0.2500000  -1.0833333   0.2500000), wk =   0.0555556
        k(   27) = (  -0.4166667   0.4166667   0.4166667), wk =   0.0185185
        k(   28) = (   0.4166667  -0.4166667   1.2500000), wk =   0.0555556

     Dense  grid:     5577 G-vectors     FFT dimensions: (  32,  32,  32)

     Estimated max dynamical RAM per process >       3.65 MB

     Estimated total dynamical RAM >      29.23 MB

     Check: negative core charge=   -0.000003

     Initial potential from superposition of free atoms

     starting charge       7.9989, renormalised to       8.0000
     Starting wfcs are    8 randomized atomic wfcs
     Checking if some PAW data can be deallocated... 

     total cpu time spent up to now is        0.2 secs

     Self-consistent Calculation

     iteration #  1     ecut=    30.00 Ry     beta= 0.60
     Davidson diagonalization with overlap
     ethr =  1.00E-02,  avg # of iterations =  2.0

     Threshold (ethr) on eigenvalues was too large:
     Diagonalizing with lowered threshold

     Davidson diagonalization with overlap
     ethr =  7.09E-04,  avg # of iterations =  1.2

     total cpu time spent up to now is        0.3 secs

     total energy              =     -93.44222585 Ry
     estimated scf accuracy    <       0.06114477 Ry

     iteration #  2     ecut=    30.00 Ry     beta= 0.60
     Davidson diagonalization with overlap
     ethr =  7.64E-04,  avg # of iterations =  1.0

     total cpu time spent up to now is        0.4 secs

     total energy              =     -93.44323726 Ry
     estimated scf accuracy    <       0.00648878 Ry

     iteration #  3     ecut=    30.00 Ry     beta= 0.60
     Davidson diagonalization with overlap
     ethr =  8.11E-05,  avg # of iterations =  2.1

     total cpu time spent up to now is        0.5 secs

     total energy              =     -93.44445772 Ry
     estimated scf accuracy    <       0.00018490 Ry

     iteration #  4     ecut=    30.00 Ry     beta= 0.60
     Davidson diagonalization with overlap
     ethr =  2.31E-06,  avg # of iterations =  4.1

     total cpu time spent up to now is        0.6 secs

     total energy              =     -93.44457105 Ry
     estimated scf accuracy    <       0.00003258 Ry

     iteration #  5     ecut=    30.00 Ry     beta= 0.60
     Davidson diagonalization with overlap
     ethr =  4.07E-07,  avg # of iterations =  2.9

     total cpu time spent up to now is        0.7 secs

     End of self-consistent calculation

          k =-0.0833 0.0833 0.0833 (   700 PWs)   bands (ev):

    -5.3717   6.1800   6.8942   6.8942

          k =-0.2500 0.2500-0.0833 (   688 PWs)   bands (ev):

    -4.8600   4.0242   5.5565   6.6830

          k =-0.4167 0.4167-0.2500 (   690 PWs)   bands (ev):

    -3.6769   1.0653   5.0888   6.0001

          k = 0.4167-0.4167 0.5833 (   695 PWs)   bands (ev):

    -2.8971  -0.1883   5.1782   5.5843

          k = 0.2500-0.2500 0.4167 (   695 PWs)   bands (ev):

    -4.1257   1.9761   5.6345   5.7153

          k = 0.0833-0.0833 0.2500 (   687 PWs)   bands (ev):

    -5.1136   5.0952   6.1846   6.4268

          k =-0.0833 0.4167 0.0833 (   688 PWs)   bands (ev):

    -4.6017   3.8941   5.3968   5.4132

          k =-0.2500 0.5833-0.0833 (   689 PWs)   bands (ev):

    -3.6207   1.9522   3.9668   4.9872

          k = 0.5833-0.2500 0.7500 (   695 PWs)   bands (ev):

    -2.3881   0.0191   3.3498   4.7313

          k = 0.4167-0.0833 0.5833 (   692 PWs)   bands (ev):

    -3.1891   1.1929   3.2691   5.2705

          k = 0.2500 0.0833 0.4167 (   692 PWs)   bands (ev):

    -4.3582   2.9682   4.7220   6.0131

          k =-0.0833 0.7500 0.0833 (   690 PWs)   bands (ev):

    -2.8593   1.1260   3.9110   4.2959

          k = 0.7500-0.0833 0.9167 (   695 PWs)   bands (ev):

    -1.5608  -0.3033   2.9729   3.8372

          k = 0.5833 0.0833 0.7500 (   698 PWs)   bands (ev):

    -1.9375   0.0096   2.4589   4.4315

          k = 0.4167 0.2500 0.5833 (   694 PWs)   bands (ev):

    -3.0572   0.3862   4.3389   5.3825

          k =-0.0833-0.9167 0.0833 (   698 PWs)   bands (ev):

    -1.6713  -0.3178   3.6182   4.0663

          k =-0.2500-0.7500-0.0833 (   694 PWs)   bands (ev):

    -2.6714   0.8774   3.3426   4.2032

          k =-0.0833-0.5833 0.0833 (   692 PWs)   bands (ev):

    -3.8450   2.5656   4.5112   4.7469

          k =-0.2500 0.2500 0.2500 (   691 PWs)   bands (ev):

    -4.6125   2.9624   6.2388   6.2388

          k =-0.4167 0.4167 0.0833 (   688 PWs)   bands (ev):

    -3.8801   2.0270   3.9302   6.0654

          k = 0.4167-0.4167 0.9167 (   690 PWs)   bands (ev):

    -2.5947   0.5207   2.7168   5.2060

          k = 0.2500-0.2500 0.7500 (   697 PWs)   bands (ev):

    -2.5434   0.4381   3.2528   4.6799

          k =-0.2500 0.5833 0.2500 (   694 PWs)   bands (ev):

    -3.4200   1.1482   4.4804   5.0820

          k = 0.5833-0.2500 1.0833 (   695 PWs)   bands (ev):

    -2.3321   0.4387   2.8186   4.1900

          k = 0.4167-0.0833 0.9167 (   700 PWs)   bands (ev):

    -1.4292  -0.3115   2.6084   3.4543

          k =-0.2500-1.0833 0.2500 (   699 PWs)   bands (ev):

    -1.6533  -0.2377   2.4723   4.4708

          k =-0.4167 0.4167 0.4167 (   685 PWs)   bands (ev):

    -3.3101   0.2481   5.8333   5.8333

          k = 0.4167-0.4167 1.2500 (   694 PWs)   bands (ev):

    -2.6456  -0.0521   3.8745   5.3463

     highest occupied level (ev):     6.8942

!    total energy              =     -93.44458138 Ry
     total all-electron energy =     -1160.136311 Ry
     estimated scf accuracy    <       0.00000087 Ry

     The total energy is the sum of the following terms:
     one-electron contribution =       6.36743343 Ry
     hartree contribution      =       1.03231420 Ry
     xc contribution           =     -12.40593044 Ry
     ewald contribution        =     -17.23775378 Ry
     one-center paw contrib.   =     -71.20064479 Ry

     convergence has been achieved in   5 iterations

     Writing all to output data dir ./silicon.save/
 
     init_run     :      0.07s CPU      0.09s WALL (       1 calls)
     electrons    :      0.48s CPU      0.56s WALL (       1 calls)

     Called by init_run:
     wfcinit      :      0.01s CPU      0.01s WALL (       1 calls)
     potinit      :      0.04s CPU      0.06s WALL (       1 calls)
     hinit0       :      0.01s CPU      0.02s WALL (       1 calls)

     Called by electrons:
     c_bands      :      0.17s CPU      0.18s WALL (       6 calls)
     sum_band     :      0.04s CPU      0.05s WALL (       6 calls)
     v_of_rho     :      0.01s CPU      0.01s WALL (       6 calls)
     newd         :      0.02s CPU      0.02s WALL (       6 calls)
     PAW_pot      :      0.28s CPU      0.36s WALL (       6 calls)
     mix_rho      :      0.00s CPU      0.00s WALL (       6 calls)

     Called by c_bands:
     init_us_2    :      0.01s CPU      0.01s WALL (     364 calls)
     init_us_2:cp :      0.00s CPU      0.01s WALL (     364 calls)
     cegterg      :      0.11s CPU      0.11s WALL (     168 calls)

     Called by *egterg:
     cdiaghg      :      0.01s CPU      0.01s WALL (     512 calls)
     h_psi        :      0.09s CPU      0.09s WALL (     568 calls)
     s_psi        :      0.00s CPU      0.00s WALL (     568 calls)
     g_psi        :      0.00s CPU      0.00s WALL (     372 calls)

     Called by h_psi:
     h_psi:calbec :      0.01s CPU      0.01s WALL (     568 calls)
     vloc_psi     :      0.07s CPU      0.08s WALL (     568 calls)
     add_vuspsi   :      0.00s CPU      0.00s WALL (     568 calls)

     General routines
     calbec       :      0.01s CPU      0.01s WALL (     736 calls)
     fft          :      0.00s CPU      0.00s WALL (      67 calls)
     ffts         :      0.00s CPU      0.00s WALL (       6 calls)
     fftw         :      0.07s CPU      0.08s WALL (    4908 calls)
 
     Parallel routines
 
     PWSCF        :      0.62s CPU      0.75s WALL

 
   This run was terminated on:  17:34:29  13Mar2026            

=------------------------------------------------------------------------------=
   JOB DONE.
=------------------------------------------------------------------------------=
