
     Program PWSCF v.7.1 starts on 13Mar2026 at 17:34:30 

     This program is part of the open-source Quantum ESPRESSO suite
     for quantum simulation of materials; please cite
         "P. Giannozzi et al., J. Phys.:Condens. Matter 21 395502 (2009);
         "P. Giannozzi et al., J. Phys.:Condens. Matter 29 465901 (2017);
         "P. Giannozzi et al., J. Chem. Phys. 152 154105 (2020);
          URL http://www.quantum-espresso.org", 
     in publications or presentations arising from this work. More details at
     http://www.quantum-espresso.org/quote

     Parallel version (MPI), running on     8 processors

     MPI processes distributed on     1 nodes
     11573 MiB available memory on the printing compute node when the environment starts
 
     Waiting for input...
     Reading input from standard input

     Current dimensions of program PWSCF are:
     Max number of different atomic species (ntypx) = 10
     Max number of k-points (npk) =  40000
     Max angular momentum in pseudopotentials (lmaxx) =  4
     file Si.pbe-n-kjpaw_psl.1.0.0.UPF: wavefunction(s)  3S 3P renormalized
 
     R & G space division:  proc/nbgrp/npool/nimage =       8
     Subspace diagonalization in iterative solution of the eigenvalue problem:
     a serial algorithm will be used

 
     Parallelization info
     --------------------
     sticks:   dense  smooth     PW     G-vecs:    dense   smooth      PW
     Min          59      59     20                  858      858     170
     Max          60      60     21                  861      861     172
     Sum         475     475    163                 6879     6879    1363
 
     Using Slab Decomposition
 


     bravais-lattice index     =            2
     lattice parameter (alat)  =      10.0000  a.u.
     unit-cell volume          =     250.0000 (a.u.)^3
     number of atoms/cell      =            2
     number of atomic types    =            1
     number of electrons       =         8.00
     number of Kohn-Sham states=            4
     kinetic-energy cutoff     =      35.0000  Ry
     charge density cutoff     =     140.0000  Ry
     scf convergence threshold =      1.0E-06
     mixing beta               =       0.6000
     number of iterations used =            8  plain     mixing
     Exchange-correlation= SLA  PW   PBX  PBC
                           (   1   4   3   4   0   0   0)

     celldm(1)=  10.000000  celldm(2)=   0.000000  celldm(3)=   0.000000
     celldm(4)=   0.000000  celldm(5)=   0.000000  celldm(6)=   0.000000

     crystal axes: (cart. coord. in units of alat)
               a(1) = (  -0.500000   0.000000   0.500000 )  
               a(2) = (   0.000000   0.500000   0.500000 )  
               a(3) = (  -0.500000   0.500000   0.000000 )  

     reciprocal axes: (cart. coord. in units 2 pi/alat)
               b(1) = ( -1.000000 -1.000000  1.000000 )  
               b(2) = (  1.000000  1.000000  1.000000 )  
               b(3) = ( -1.000000  1.000000 -1.000000 )  


     PseudoPot. # 1 for Si read from file:
     /home/karan/pseudos/Si.pbe-n-kjpaw_psl.1.0.0.UPF
     MD5 check sum: c39c59da582df4a0d9f10159256ea34e
     Pseudo is Projector augmented-wave + core cor, Zval =  4.0
     Generated using &quot;atomic&quot; code by A. Dal Corso  v.6.3
     Shape of augmentation charge: PSQ
     Using radial grid of 1141 points,  6 beta functions with: 
                l(1) =   0
                l(2) =   0
                l(3) =   1
                l(4) =   1
                l(5) =   2
                l(6) =   2
     Q(r) pseudized with 0 coefficients 


     atomic species   valence    mass     pseudopotential
        Si             4.00    28.08600     Si( 1.00)

     48 Sym. Ops., with inversion, found (24 have fractional translation)



   Cartesian axes

     site n.     atom                  positions (alat units)
         1           Si  tau(   1) = (   0.0000000   0.0000000   0.0000000  )
         2           Si  tau(   2) = (   0.2500000   0.2500000   0.2500000  )

     number of k points=    28
                       cart. coord. in units 2pi/alat
        k(    1) = (  -0.0833333   0.0833333   0.0833333), wk =   0.0185185
        k(    2) = (  -0.2500000   0.2500000  -0.0833333), wk =   0.0555556
        k(    3) = (  -0.4166667   0.4166667  -0.2500000), wk =   0.0555556
        k(    4) = (   0.4166667  -0.4166667   0.5833333), wk =   0.0555556
        k(    5) = (   0.2500000  -0.2500000   0.4166667), wk =   0.0555556
        k(    6) = (   0.0833333  -0.0833333   0.2500000), wk =   0.0555556
        k(    7) = (  -0.0833333   0.4166667   0.0833333), wk =   0.0555556
        k(    8) = (  -0.2500000   0.5833333  -0.0833333), wk =   0.1111111
        k(    9) = (   0.5833333  -0.2500000   0.7500000), wk =   0.1111111
        k(   10) = (   0.4166667  -0.0833333   0.5833333), wk =   0.1111111
        k(   11) = (   0.2500000   0.0833333   0.4166667), wk =   0.1111111
        k(   12) = (  -0.0833333   0.7500000   0.0833333), wk =   0.0555556
        k(   13) = (   0.7500000  -0.0833333   0.9166667), wk =   0.1111111
        k(   14) = (   0.5833333   0.0833333   0.7500000), wk =   0.1111111
        k(   15) = (   0.4166667   0.2500000   0.5833333), wk =   0.1111111
        k(   16) = (  -0.0833333  -0.9166667   0.0833333), wk =   0.0555556
        k(   17) = (  -0.2500000  -0.7500000  -0.0833333), wk =   0.1111111
        k(   18) = (  -0.0833333  -0.5833333   0.0833333), wk =   0.0555556
        k(   19) = (  -0.2500000   0.2500000   0.2500000), wk =   0.0185185
        k(   20) = (  -0.4166667   0.4166667   0.0833333), wk =   0.0555556
        k(   21) = (   0.4166667  -0.4166667   0.9166667), wk =   0.0555556
        k(   22) = (   0.2500000  -0.2500000   0.7500000), wk =   0.0555556
        k(   23) = (  -0.2500000   0.5833333   0.2500000), wk =   0.0555556
        k(   24) = (   0.5833333  -0.2500000   1.0833333), wk =   0.1111111
        k(   25) = (   0.4166667  -0.0833333   0.9166667), wk =   0.1111111
        k(   26) = (  -0.2500000  -1.0833333   0.2500000), wk =   0.0555556
        k(   27) = (  -0.4166667   0.4166667   0.4166667), wk =   0.0185185
        k(   28) = (   0.4166667  -0.4166667   1.2500000), wk =   0.0555556

     Dense  grid:     6879 G-vectors     FFT dimensions: (  32,  32,  32)

     Estimated max dynamical RAM per process >       4.31 MB

     Estimated total dynamical RAM >      34.45 MB

     Check: negative core charge=   -0.000003

     Initial potential from superposition of free atoms

     starting charge       7.9989, renormalised to       8.0000
     Starting wfcs are    8 randomized atomic wfcs
     Checking if some PAW data can be deallocated... 

     total cpu time spent up to now is        0.2 secs

     Self-consistent Calculation

     iteration #  1     ecut=    35.00 Ry     beta= 0.60
     Davidson diagonalization with overlap
     ethr =  1.00E-02,  avg # of iterations =  2.0

     Threshold (ethr) on eigenvalues was too large:
     Diagonalizing with lowered threshold

     Davidson diagonalization with overlap
     ethr =  7.08E-04,  avg # of iterations =  1.2

     total cpu time spent up to now is        0.3 secs

     total energy              =     -93.44230291 Ry
     estimated scf accuracy    <       0.06110857 Ry

     iteration #  2     ecut=    35.00 Ry     beta= 0.60
     Davidson diagonalization with overlap
     ethr =  7.64E-04,  avg # of iterations =  1.0

     total cpu time spent up to now is        0.4 secs

     total energy              =     -93.44332907 Ry
     estimated scf accuracy    <       0.00648533 Ry

     iteration #  3     ecut=    35.00 Ry     beta= 0.60
     Davidson diagonalization with overlap
     ethr =  8.11E-05,  avg # of iterations =  2.0

     total cpu time spent up to now is        0.5 secs

     total energy              =     -93.44455812 Ry
     estimated scf accuracy    <       0.00018293 Ry

     iteration #  4     ecut=    35.00 Ry     beta= 0.60
     Davidson diagonalization with overlap
     ethr =  2.29E-06,  avg # of iterations =  4.1

     total cpu time spent up to now is        0.6 secs

     total energy              =     -93.44467133 Ry
     estimated scf accuracy    <       0.00003045 Ry

     iteration #  5     ecut=    35.00 Ry     beta= 0.60
     Davidson diagonalization with overlap
     ethr =  3.81E-07,  avg # of iterations =  3.1

     total cpu time spent up to now is        0.7 secs

     End of self-consistent calculation

          k =-0.0833 0.0833 0.0833 (   881 PWs)   bands (ev):

    -5.3720   6.1794   6.8936   6.8936

          k =-0.2500 0.2500-0.0833 (   893 PWs)   bands (ev):

    -4.8603   4.0236   5.5559   6.6824

          k =-0.4167 0.4167-0.2500 (   874 PWs)   bands (ev):

    -3.6772   1.0649   5.0883   5.9995

          k = 0.4167-0.4167 0.5833 (   867 PWs)   bands (ev):

    -2.8975  -0.1886   5.1777   5.5838

          k = 0.2500-0.2500 0.4167 (   875 PWs)   bands (ev):

    -4.1261   1.9757   5.6340   5.7147

          k = 0.0833-0.0833 0.2500 (   894 PWs)   bands (ev):

    -5.1139   5.0945   6.1840   6.4262

          k =-0.0833 0.4167 0.0833 (   874 PWs)   bands (ev):

    -4.6020   3.8935   5.3962   5.4126

          k =-0.2500 0.5833-0.0833 (   869 PWs)   bands (ev):

    -3.6210   1.9517   3.9663   4.9867

          k = 0.5833-0.2500 0.7500 (   871 PWs)   bands (ev):

    -2.3885   0.0188   3.3494   4.7309

          k = 0.4167-0.0833 0.5833 (   872 PWs)   bands (ev):

    -3.1895   1.1925   3.2687   5.2699

          k = 0.2500 0.0833 0.4167 (   873 PWs)   bands (ev):

    -4.3585   2.9677   4.7215   6.0125

          k =-0.0833 0.7500 0.0833 (   871 PWs)   bands (ev):

    -2.8597   1.1255   3.9106   4.2954

          k = 0.7500-0.0833 0.9167 (   873 PWs)   bands (ev):

    -1.5612  -0.3037   2.9726   3.8368

          k = 0.5833 0.0833 0.7500 (   873 PWs)   bands (ev):

    -1.9379   0.0092   2.4585   4.4310

          k = 0.4167 0.2500 0.5833 (   876 PWs)   bands (ev):

    -3.0576   0.3859   4.3384   5.3820

          k =-0.0833-0.9167 0.0833 (   873 PWs)   bands (ev):

    -1.6717  -0.3182   3.6178   4.0658

          k =-0.2500-0.7500-0.0833 (   876 PWs)   bands (ev):

    -2.6717   0.8769   3.3422   4.2028

          k =-0.0833-0.5833 0.0833 (   864 PWs)   bands (ev):

    -3.8453   2.5652   4.5107   4.7464

          k =-0.2500 0.2500 0.2500 (   881 PWs)   bands (ev):

    -4.6129   2.9620   6.2381   6.2381

          k =-0.4167 0.4167 0.0833 (   874 PWs)   bands (ev):

    -3.8804   2.0266   3.9297   6.0647

          k = 0.4167-0.4167 0.9167 (   869 PWs)   bands (ev):

    -2.5951   0.5203   2.7164   5.2055

          k = 0.2500-0.2500 0.7500 (   866 PWs)   bands (ev):

    -2.5438   0.4377   3.2525   4.6794

          k =-0.2500 0.5833 0.2500 (   876 PWs)   bands (ev):

    -3.4203   1.1478   4.4799   5.0815

          k = 0.5833-0.2500 1.0833 (   871 PWs)   bands (ev):

    -2.3325   0.4383   2.8183   4.1895

          k = 0.4167-0.0833 0.9167 (   874 PWs)   bands (ev):

    -1.4296  -0.3119   2.6081   3.4540

          k =-0.2500-1.0833 0.2500 (   876 PWs)   bands (ev):

    -1.6537  -0.2380   2.4720   4.4703

          k =-0.4167 0.4167 0.4167 (   869 PWs)   bands (ev):

    -3.3104   0.2478   5.8327   5.8327

          k = 0.4167-0.4167 1.2500 (   868 PWs)   bands (ev):

    -2.6460  -0.0524   3.8741   5.3458

     highest occupied level (ev):     6.8936

!    total energy              =     -93.44468139 Ry
     total all-electron energy =     -1160.136411 Ry
     estimated scf accuracy    <       0.00000077 Ry

     The total energy is the sum of the following terms:
     one-electron contribution =       6.36748449 Ry
     hartree contribution      =       1.03230672 Ry
     xc contribution           =     -12.40599841 Ry
     ewald contribution        =     -17.23775377 Ry
     one-center paw contrib.   =     -71.20072042 Ry

     convergence has been achieved in   5 iterations

     Writing all to output data dir ./silicon.save/
 
     init_run     :      0.08s CPU      0.09s WALL (       1 calls)
     electrons    :      0.47s CPU      0.54s WALL (       1 calls)

     Called by init_run:
     wfcinit      :      0.01s CPU      0.01s WALL (       1 calls)
     potinit      :      0.05s CPU      0.06s WALL (       1 calls)
     hinit0       :      0.01s CPU      0.02s WALL (       1 calls)

     Called by electrons:
     c_bands      :      0.19s CPU      0.20s WALL (       6 calls)
     sum_band     :      0.05s CPU      0.05s WALL (       6 calls)
     v_of_rho     :      0.01s CPU      0.01s WALL (       6 calls)
     newd         :      0.01s CPU      0.02s WALL (       6 calls)
     PAW_pot      :      0.27s CPU      0.32s WALL (       6 calls)
     mix_rho      :      0.00s CPU      0.00s WALL (       6 calls)

     Called by c_bands:
     init_us_2    :      0.01s CPU      0.01s WALL (     364 calls)
     init_us_2:cp :      0.01s CPU      0.01s WALL (     364 calls)
     cegterg      :      0.11s CPU      0.11s WALL (     168 calls)

     Called by *egterg:
     cdiaghg      :      0.01s CPU      0.01s WALL (     516 calls)
     h_psi        :      0.09s CPU      0.09s WALL (     572 calls)
     s_psi        :      0.00s CPU      0.00s WALL (     572 calls)
     g_psi        :      0.00s CPU      0.00s WALL (     376 calls)

     Called by h_psi:
     h_psi:calbec :      0.01s CPU      0.01s WALL (     572 calls)
     vloc_psi     :      0.08s CPU      0.08s WALL (     572 calls)
     add_vuspsi   :      0.00s CPU      0.00s WALL (     572 calls)

     General routines
     calbec       :      0.01s CPU      0.01s WALL (     740 calls)
     fft          :      0.00s CPU      0.00s WALL (      67 calls)
     ffts         :      0.00s CPU      0.00s WALL (       6 calls)
     fftw         :      0.08s CPU      0.08s WALL (    4918 calls)
 
     Parallel routines
 
     PWSCF        :      0.62s CPU      0.74s WALL

 
   This run was terminated on:  17:34:31  13Mar2026            

=------------------------------------------------------------------------------=
   JOB DONE.
=------------------------------------------------------------------------------=
