
     Program PWSCF v.7.1 starts on 13Mar2026 at 17:58:17 

     This program is part of the open-source Quantum ESPRESSO suite
     for quantum simulation of materials; please cite
         "P. Giannozzi et al., J. Phys.:Condens. Matter 21 395502 (2009);
         "P. Giannozzi et al., J. Phys.:Condens. Matter 29 465901 (2017);
         "P. Giannozzi et al., J. Chem. Phys. 152 154105 (2020);
          URL http://www.quantum-espresso.org", 
     in publications or presentations arising from this work. More details at
     http://www.quantum-espresso.org/quote

     Parallel version (MPI), running on     8 processors

     MPI processes distributed on     1 nodes
     11348 MiB available memory on the printing compute node when the environment starts
 
     Waiting for input...
     Reading input from standard input

     Current dimensions of program PWSCF are:
     Max number of different atomic species (ntypx) = 10
     Max number of k-points (npk) =  40000
     Max angular momentum in pseudopotentials (lmaxx) =  4

     File ./tmp/silicon.update deleted, as requested

     File ./tmp/silicon.bfgs deleted, as requested
     file Si.pbe-n-kjpaw_psl.1.0.0.UPF: wavefunction(s)  3S 3P renormalized
 
     R & G space division:  proc/nbgrp/npool/nimage =       8
     Subspace diagonalization in iterative solution of the eigenvalue problem:
     a serial algorithm will be used

 
     Parallelization info
     --------------------
     sticks:   dense  smooth     PW     G-vecs:    dense   smooth      PW
     Min          54      54     18                  771      771     153
     Max          55      55     19                  775      775     156
     Sum         439     439    151                 6183     6183    1243
 
     Using Slab Decomposition
 


     bravais-lattice index     =            2
     lattice parameter (alat)  =      10.3395  a.u.
     unit-cell volume          =     276.3367 (a.u.)^3
     number of atoms/cell      =            2
     number of atomic types    =            1
     number of electrons       =         8.00
     number of Kohn-Sham states=            4
     kinetic-energy cutoff     =      30.0000  Ry
     charge density cutoff     =     120.0000  Ry
     scf convergence threshold =      1.0E-08
     mixing beta               =       0.7000
     number of iterations used =            8  plain     mixing
     energy convergence thresh.=      1.0E-05
     force convergence thresh. =      1.0E-04
     press convergence thresh. =      5.0E-01
     Exchange-correlation= SLA  PW   PBX  PBC
                           (   1   4   3   4   0   0   0)
     nstep                     =           50


     celldm(1)=  10.339500  celldm(2)=   0.000000  celldm(3)=   0.000000
     celldm(4)=   0.000000  celldm(5)=   0.000000  celldm(6)=   0.000000

     crystal axes: (cart. coord. in units of alat)
               a(1) = (  -0.500000   0.000000   0.500000 )  
               a(2) = (   0.000000   0.500000   0.500000 )  
               a(3) = (  -0.500000   0.500000   0.000000 )  

     reciprocal axes: (cart. coord. in units 2 pi/alat)
               b(1) = ( -1.000000 -1.000000  1.000000 )  
               b(2) = (  1.000000  1.000000  1.000000 )  
               b(3) = ( -1.000000  1.000000 -1.000000 )  


     PseudoPot. # 1 for Si read from file:
     /home/karan/pseudos/Si.pbe-n-kjpaw_psl.1.0.0.UPF
     MD5 check sum: c39c59da582df4a0d9f10159256ea34e
     Pseudo is Projector augmented-wave + core cor, Zval =  4.0
     Generated using &quot;atomic&quot; code by A. Dal Corso  v.6.3
     Shape of augmentation charge: PSQ
     Using radial grid of 1141 points,  6 beta functions with: 
                l(1) =   0
                l(2) =   0
                l(3) =   1
                l(4) =   1
                l(5) =   2
                l(6) =   2
     Q(r) pseudized with 0 coefficients 


     atomic species   valence    mass     pseudopotential
        Si             4.00    28.08550     Si( 1.00)

      6 Sym. Ops. (no inversion) found



   Cartesian axes

     site n.     atom                  positions (alat units)
         1           Si  tau(   1) = (   0.0000000   0.0000000   0.0000000  )
         2           Si  tau(   2) = (   0.2496599   0.2496599   0.2496599  )

     number of k points=    91
                       cart. coord. in units 2pi/alat
        k(    1) = (  -0.0833333   0.0833333   0.0833333), wk =   0.0138889
        k(    2) = (  -0.2500000   0.2500000  -0.0833333), wk =   0.0277778
        k(    3) = (  -0.4166667   0.4166667  -0.2500000), wk =   0.0277778
        k(    4) = (   0.4166667  -0.4166667   0.5833333), wk =   0.0277778
        k(    5) = (   0.2500000  -0.2500000   0.4166667), wk =   0.0277778
        k(    6) = (   0.0833333  -0.0833333   0.2500000), wk =   0.0277778
        k(    7) = (  -0.0833333   0.4166667   0.0833333), wk =   0.0277778
        k(    8) = (  -0.2500000   0.5833333  -0.0833333), wk =   0.0277778
        k(    9) = (   0.5833333  -0.2500000   0.7500000), wk =   0.0277778
        k(   10) = (   0.4166667  -0.0833333   0.5833333), wk =   0.0277778
        k(   11) = (   0.2500000   0.0833333   0.4166667), wk =   0.0277778
        k(   12) = (  -0.0833333   0.7500000   0.0833333), wk =   0.0277778
        k(   13) = (   0.7500000  -0.0833333   0.9166667), wk =   0.0277778
        k(   14) = (   0.5833333   0.0833333   0.7500000), wk =   0.0277778
        k(   15) = (   0.4166667   0.2500000   0.5833333), wk =   0.0277778
        k(   16) = (  -0.0833333  -0.9166667   0.0833333), wk =   0.0277778
        k(   17) = (  -0.2500000  -0.7500000  -0.0833333), wk =   0.0277778
        k(   18) = (  -0.0833333  -0.5833333   0.0833333), wk =   0.0277778
        k(   19) = (  -0.2500000   0.2500000   0.2500000), wk =   0.0138889
        k(   20) = (  -0.4166667   0.4166667   0.0833333), wk =   0.0277778
        k(   21) = (   0.4166667  -0.4166667   0.9166667), wk =   0.0277778
        k(   22) = (   0.2500000  -0.2500000   0.7500000), wk =   0.0277778
        k(   23) = (  -0.2500000   0.5833333   0.2500000), wk =   0.0277778
        k(   24) = (   0.5833333  -0.2500000   1.0833333), wk =   0.0277778
        k(   25) = (   0.4166667  -0.0833333   0.9166667), wk =   0.0277778
        k(   26) = (  -0.2500000  -1.0833333   0.2500000), wk =   0.0277778
        k(   27) = (  -0.4166667   0.4166667   0.4166667), wk =   0.0138889
        k(   28) = (   0.4166667  -0.4166667   1.2500000), wk =   0.0277778
        k(   29) = (   0.0833333   0.0833333   0.0833333), wk =   0.0046296
        k(   30) = (   0.2500000   0.2500000  -0.0833333), wk =   0.0138889
        k(   31) = (  -0.2500000  -0.2500000  -0.0833333), wk =   0.0138889
        k(   32) = (   0.4166667   0.4166667  -0.2500000), wk =   0.0138889
        k(   33) = (  -0.4166667  -0.4166667  -0.2500000), wk =   0.0138889
        k(   34) = (  -0.4166667  -0.4166667   0.5833333), wk =   0.0138889
        k(   35) = (   0.4166667   0.4166667   0.5833333), wk =   0.0138889
        k(   36) = (  -0.2500000  -0.2500000   0.4166667), wk =   0.0138889
        k(   37) = (   0.2500000   0.2500000   0.4166667), wk =   0.0138889
        k(   38) = (  -0.0833333  -0.0833333   0.2500000), wk =   0.0138889
        k(   39) = (   0.0833333   0.0833333   0.2500000), wk =   0.0138889
        k(   40) = (   0.4166667   0.0833333   0.0833333), wk =   0.0138889
        k(   41) = (  -0.0833333   0.4166667  -0.0833333), wk =   0.0138889
        k(   42) = (   0.5833333   0.2500000  -0.0833333), wk =   0.0277778
        k(   43) = (  -0.5833333  -0.2500000  -0.0833333), wk =   0.0277778
        k(   44) = (   0.0833333   0.5833333  -0.2500000), wk =   0.0277778
        k(   45) = (  -0.2500000  -0.5833333   0.7500000), wk =   0.0277778
        k(   46) = (   0.2500000   0.5833333   0.7500000), wk =   0.0277778
        k(   47) = (  -0.7500000  -0.2500000   0.5833333), wk =   0.0277778
        k(   48) = (  -0.0833333  -0.4166667   0.5833333), wk =   0.0277778
        k(   49) = (   0.0833333   0.4166667   0.5833333), wk =   0.0277778
        k(   50) = (  -0.5833333  -0.0833333   0.4166667), wk =   0.0277778
        k(   51) = (   0.0833333  -0.2500000   0.4166667), wk =   0.0277778
        k(   52) = (  -0.0833333   0.2500000   0.4166667), wk =   0.0277778
        k(   53) = (  -0.4166667   0.0833333   0.2500000), wk =   0.0277778
        k(   54) = (   0.7500000   0.0833333   0.0833333), wk =   0.0138889
        k(   55) = (  -0.0833333   0.7500000  -0.0833333), wk =   0.0138889
        k(   56) = (  -0.0833333  -0.7500000   0.9166667), wk =   0.0277778
        k(   57) = (   0.0833333   0.7500000   0.9166667), wk =   0.0277778
        k(   58) = (  -0.9166667  -0.0833333   0.7500000), wk =   0.0277778
        k(   59) = (   0.0833333  -0.5833333   0.7500000), wk =   0.0277778
        k(   60) = (  -0.0833333   0.5833333   0.7500000), wk =   0.0277778
        k(   61) = (  -0.7500000   0.0833333   0.5833333), wk =   0.0277778
        k(   62) = (   0.2500000  -0.4166667   0.5833333), wk =   0.0277778
        k(   63) = (  -0.2500000   0.4166667   0.5833333), wk =   0.0277778
        k(   64) = (  -0.5833333   0.2500000   0.4166667), wk =   0.0277778
        k(   65) = (  -0.9166667   0.0833333   0.0833333), wk =   0.0138889
        k(   66) = (  -0.0833333  -0.9166667  -0.0833333), wk =   0.0138889
        k(   67) = (  -0.7500000   0.2500000  -0.0833333), wk =   0.0277778
        k(   68) = (   0.7500000  -0.2500000  -0.0833333), wk =   0.0277778
        k(   69) = (   0.0833333  -0.7500000  -0.2500000), wk =   0.0277778
        k(   70) = (  -0.5833333   0.0833333   0.0833333), wk =   0.0138889
        k(   71) = (  -0.0833333  -0.5833333  -0.0833333), wk =   0.0138889
        k(   72) = (   0.2500000   0.2500000   0.2500000), wk =   0.0046296
        k(   73) = (   0.4166667   0.4166667   0.0833333), wk =   0.0138889
        k(   74) = (  -0.4166667  -0.4166667   0.0833333), wk =   0.0138889
        k(   75) = (  -0.4166667  -0.4166667   0.9166667), wk =   0.0138889
        k(   76) = (   0.4166667   0.4166667   0.9166667), wk =   0.0138889
        k(   77) = (  -0.2500000  -0.2500000   0.7500000), wk =   0.0138889
        k(   78) = (   0.2500000   0.2500000   0.7500000), wk =   0.0138889
        k(   79) = (   0.5833333   0.2500000   0.2500000), wk =   0.0138889
        k(   80) = (  -0.2500000   0.5833333  -0.2500000), wk =   0.0138889
        k(   81) = (  -0.2500000  -0.5833333   1.0833333), wk =   0.0277778
        k(   82) = (   0.2500000   0.5833333   1.0833333), wk =   0.0277778
        k(   83) = (  -1.0833333  -0.2500000   0.5833333), wk =   0.0277778
        k(   84) = (  -0.0833333  -0.4166667   0.9166667), wk =   0.0277778
        k(   85) = (   0.0833333   0.4166667   0.9166667), wk =   0.0277778
        k(   86) = (  -0.9166667  -0.0833333   0.4166667), wk =   0.0277778
        k(   87) = (  -1.0833333   0.2500000   0.2500000), wk =   0.0138889
        k(   88) = (  -0.2500000  -1.0833333  -0.2500000), wk =   0.0138889
        k(   89) = (   0.4166667   0.4166667   0.4166667), wk =   0.0046296
        k(   90) = (  -0.4166667  -0.4166667   1.2500000), wk =   0.0138889
        k(   91) = (   0.4166667   0.4166667   1.2500000), wk =   0.0138889

     Dense  grid:     6183 G-vectors     FFT dimensions: (  25,  25,  25)

     Estimated max dynamical RAM per process >       5.21 MB

     Estimated total dynamical RAM >      41.68 MB

     Check: negative core charge=   -0.000003

     Initial potential from superposition of free atoms

     starting charge       7.9989, renormalised to       8.0000
     Starting wfcs are    8 randomized atomic wfcs
     Checking if some PAW data can be deallocated... 

     total cpu time spent up to now is        0.2 secs

     Self-consistent Calculation

     iteration #  1     ecut=    30.00 Ry     beta= 0.70
     Davidson diagonalization with overlap
     ethr =  1.00E-02,  avg # of iterations =  2.0

     Threshold (ethr) on eigenvalues was too large:
     Diagonalizing with lowered threshold

     Davidson diagonalization with overlap
     ethr =  5.99E-04,  avg # of iterations =  1.5

     total cpu time spent up to now is        0.5 secs

     total energy              =     -93.45076531 Ry
     estimated scf accuracy    <       0.05190995 Ry

     iteration #  2     ecut=    30.00 Ry     beta= 0.70
     Davidson diagonalization with overlap
     ethr =  6.49E-04,  avg # of iterations =  1.0

     total cpu time spent up to now is        0.6 secs

     total energy              =     -93.45255157 Ry
     estimated scf accuracy    <       0.00280847 Ry

     iteration #  3     ecut=    30.00 Ry     beta= 0.70
     Davidson diagonalization with overlap
     ethr =  3.51E-05,  avg # of iterations =  2.9

     total cpu time spent up to now is        0.8 secs

     total energy              =     -93.45329718 Ry
     estimated scf accuracy    <       0.00010368 Ry

     iteration #  4     ecut=    30.00 Ry     beta= 0.70
     Davidson diagonalization with overlap
     ethr =  1.30E-06,  avg # of iterations =  4.0

     total cpu time spent up to now is        1.0 secs

     total energy              =     -93.45336516 Ry
     estimated scf accuracy    <       0.00001391 Ry

     iteration #  5     ecut=    30.00 Ry     beta= 0.70
     Davidson diagonalization with overlap
     ethr =  1.74E-07,  avg # of iterations =  3.2

     total cpu time spent up to now is        1.2 secs

     total energy              =     -93.45337027 Ry
     estimated scf accuracy    <       0.00000021 Ry

     iteration #  6     ecut=    30.00 Ry     beta= 0.70
     Davidson diagonalization with overlap
     ethr =  2.61E-09,  avg # of iterations =  6.2

     total cpu time spent up to now is        1.4 secs

     total energy              =     -93.45337072 Ry
     estimated scf accuracy    <       0.00000002 Ry

     iteration #  7     ecut=    30.00 Ry     beta= 0.70
     Davidson diagonalization with overlap
     ethr =  2.81E-10,  avg # of iterations =  3.4

     total cpu time spent up to now is        1.6 secs

     End of self-consistent calculation

          k =-0.0833 0.0833 0.0833 (   752 PWs)   bands (ev):

    -5.7503   5.1152   5.8167   5.8390

          k =-0.2500 0.2500-0.0833 (   772 PWs)   bands (ev):

    -5.2817   3.0497   4.6144   5.6135

          k =-0.4167 0.4167-0.2500 (   768 PWs)   bands (ev):

    -4.2102   0.3271   4.1533   4.9872

          k = 0.4167-0.4167 0.5833 (   771 PWs)   bands (ev):

    -3.5294  -0.7943   4.2165   4.6140

          k = 0.2500-0.2500 0.4167 (   774 PWs)   bands (ev):

    -4.6133   1.1588   4.6737   4.7104

          k = 0.0833-0.0833 0.2500 (   775 PWs)   bands (ev):

    -5.5136   4.0460   5.1898   5.3775

          k =-0.0833 0.4167 0.0833 (   775 PWs)   bands (ev):

    -5.0442   2.8475   4.4602   4.4741

          k =-0.2500 0.5833-0.0833 (   770 PWs)   bands (ev):

    -4.1502   1.0351   3.1585   4.0935

          k = 0.5833-0.2500 0.7500 (   763 PWs)   bands (ev):

    -3.0591  -0.6809   2.5589   3.8773

          k = 0.4167-0.0833 0.5833 (   769 PWs)   bands (ev):

    -3.7622   0.3475   2.5276   4.3556

          k = 0.2500 0.0833 0.4167 (   771 PWs)   bands (ev):

    -4.8219   2.0179   3.8529   5.0104

          k =-0.0833 0.7500 0.0833 (   769 PWs)   bands (ev):

    -3.4490   0.2041   3.1345   3.4598

          k = 0.7500-0.0833 0.9167 (   758 PWs)   bands (ev):

    -2.2759  -1.1149   2.3024   3.0693

          k = 0.5833 0.0833 0.7500 (   759 PWs)   bands (ev):

    -2.6382  -0.7895   1.8322   3.6057

          k = 0.4167 0.2500 0.5833 (   768 PWs)   bands (ev):

    -3.6505  -0.3239   3.4528   4.4491

          k =-0.0833-0.9167 0.0833 (   765 PWs)   bands (ev):

    -2.3634  -1.1236   2.8695   3.2477

          k =-0.2500-0.7500-0.0833 (   766 PWs)   bands (ev):

    -3.2823  -0.0214   2.6218   3.4046

          k =-0.0833-0.5833 0.0833 (   771 PWs)   bands (ev):

    -4.3509   1.5538   3.6691   3.8758

          k =-0.2500 0.2500 0.2500 (   778 PWs)   bands (ev):

    -5.0562   2.0854   5.2137   5.2330

          k =-0.4167 0.4167 0.0833 (   775 PWs)   bands (ev):

    -4.3895   1.1556   3.1275   5.0507

          k = 0.4167-0.4167 0.9167 (   769 PWs)   bands (ev):

    -3.2345  -0.2706   2.0422   4.2796

          k = 0.2500-0.2500 0.7500 (   768 PWs)   bands (ev):

    -3.1812  -0.3522   2.5119   3.8068

          k =-0.2500 0.5833 0.2500 (   773 PWs)   bands (ev):

    -3.9730   0.3594   3.5794   4.1738

          k = 0.5833-0.2500 1.0833 (   761 PWs)   bands (ev):

    -2.9910  -0.3894   2.1443   3.3938

          k = 0.4167-0.0833 0.9167 (   757 PWs)   bands (ev):

    -2.1734  -1.1239   1.9847   2.7459

          k =-0.2500-1.0833 0.2500 (   760 PWs)   bands (ev):

    -2.3836  -1.0228   1.8627   3.6154

          k =-0.4167 0.4167 0.4167 (   769 PWs)   bands (ev):

    -3.8892  -0.4015   4.8299   4.8488

          k = 0.4167-0.4167 1.2500 (   768 PWs)   bands (ev):

    -3.2976  -0.7031   3.0325   4.4038

          k = 0.0833 0.0833 0.0833 (   752 PWs)   bands (ev):

    -5.7502   5.0975   5.8381   5.8381

          k = 0.2500 0.2500-0.0833 (   772 PWs)   bands (ev):

    -5.2814   3.0442   4.6085   5.6297

          k =-0.2500-0.2500-0.0833 (   772 PWs)   bands (ev):

    -5.2810   3.0349   4.6186   5.6278

          k = 0.4167 0.4167-0.2500 (   768 PWs)   bands (ev):

    -4.2096   0.3254   4.1433   5.0014

          k =-0.4167-0.4167-0.2500 (   768 PWs)   bands (ev):

    -4.2065   0.3127   4.1549   4.9972

          k =-0.4167-0.4167 0.5833 (   771 PWs)   bands (ev):

    -3.5295  -0.7939   4.2044   4.6266

          k = 0.4167 0.4167 0.5833 (   771 PWs)   bands (ev):

    -3.5214  -0.8122   4.2175   4.6224

          k =-0.2500-0.2500 0.4167 (   774 PWs)   bands (ev):

    -4.6136   1.1608   4.6869   4.6941

          k = 0.2500 0.2500 0.4167 (   774 PWs)   bands (ev):

    -4.6114   1.1465   4.6837   4.7106

          k =-0.0833-0.0833 0.2500 (   775 PWs)   bands (ev):

    -5.5137   4.0509   5.2023   5.3579

          k = 0.0833 0.0833 0.2500 (   775 PWs)   bands (ev):

    -5.5134   4.0336   5.2011   5.3802

          k = 0.4167 0.0833 0.0833 (   775 PWs)   bands (ev):

    -5.0438   2.8387   4.4628   4.4812

          k =-0.0833 0.4167-0.0833 (   775 PWs)   bands (ev):

    -5.0444   2.8532   4.4448   4.4822

          k = 0.5833 0.2500-0.0833 (   770 PWs)   bands (ev):

    -4.1491   1.0273   3.1614   4.1000

          k =-0.5833-0.2500-0.0833 (   770 PWs)   bands (ev):

    -4.1481   1.0206   3.1670   4.0997

          k = 0.0833 0.5833-0.2500 (   770 PWs)   bands (ev):

    -4.1501   1.0325   3.1669   4.0877

          k =-0.2500-0.5833 0.7500 (   763 PWs)   bands (ev):

    -3.0588  -0.6821   2.5638   3.8739

          k = 0.2500 0.5833 0.7500 (   763 PWs)   bands (ev):

    -3.0511  -0.6995   2.5700   3.8767

          k =-0.7500-0.2500 0.5833 (   763 PWs)   bands (ev):

    -3.0598  -0.6810   2.5709   3.8652

          k =-0.0833-0.4167 0.5833 (   769 PWs)   bands (ev):

    -3.7643   0.3551   2.5295   4.3461

          k = 0.0833 0.4167 0.5833 (   769 PWs)   bands (ev):

    -3.7606   0.3397   2.5342   4.3546

          k =-0.5833-0.0833 0.4167 (   769 PWs)   bands (ev):

    -3.7642   0.3541   2.5326   4.3436

          k = 0.0833-0.2500 0.4167 (   771 PWs)   bands (ev):

    -4.8231   2.0312   3.8507   4.9972

          k =-0.0833 0.2500 0.4167 (   771 PWs)   bands (ev):

    -4.8225   2.0258   3.8449   5.0117

          k =-0.4167 0.0833 0.2500 (   771 PWs)   bands (ev):

    -4.8232   2.0331   3.8468   4.9992

          k = 0.7500 0.0833 0.0833 (   769 PWs)   bands (ev):

    -3.4480   0.2005   3.1310   3.4664

          k =-0.0833 0.7500-0.0833 (   769 PWs)   bands (ev):

    -3.4495   0.2067   3.1245   3.4668

          k =-0.0833-0.7500 0.9167 (   758 PWs)   bands (ev):

    -2.2751  -1.1170   2.3098   3.0638

          k = 0.0833 0.7500 0.9167 (   758 PWs)   bands (ev):

    -2.2709  -1.1228   2.3057   3.0693

          k =-0.9167-0.0833 0.7500 (   758 PWs)   bands (ev):

    -2.2772  -1.1138   2.3108   3.0613

          k = 0.0833-0.5833 0.7500 (   759 PWs)   bands (ev):

    -2.6472  -0.7729   1.8331   3.5966

          k =-0.0833 0.5833 0.7500 (   759 PWs)   bands (ev):

    -2.6430  -0.7792   1.8262   3.6062

          k =-0.7500 0.0833 0.5833 (   759 PWs)   bands (ev):

    -2.6467  -0.7733   1.8310   3.5992

          k = 0.2500-0.4167 0.5833 (   768 PWs)   bands (ev):

    -3.6563  -0.3079   3.4543   4.4362

          k =-0.2500 0.4167 0.5833 (   768 PWs)   bands (ev):

    -3.6555  -0.3093   3.4427   4.4509

          k =-0.5833 0.2500 0.4167 (   768 PWs)   bands (ev):

    -3.6564  -0.3069   3.4451   4.4455

          k =-0.9167 0.0833 0.0833 (   765 PWs)   bands (ev):

    -2.3637  -1.1227   2.8619   3.2542

          k =-0.0833-0.9167-0.0833 (   765 PWs)   bands (ev):

    -2.3614  -1.1265   2.8639   3.2541

          k =-0.7500 0.2500-0.0833 (   766 PWs)   bands (ev):

    -3.2854  -0.0115   2.6241   3.3943

          k = 0.7500-0.2500-0.0833 (   766 PWs)   bands (ev):

    -3.2856  -0.0097   2.6135   3.4030

          k = 0.0833-0.7500-0.2500 (   766 PWs)   bands (ev):

    -3.2840  -0.0160   2.6207   3.4023

          k =-0.5833 0.0833 0.0833 (   771 PWs)   bands (ev):

    -4.3513   1.5582   3.6559   3.8836

          k =-0.0833-0.5833-0.0833 (   771 PWs)   bands (ev):

    -4.3503   1.5482   3.6678   3.8830

          k = 0.2500 0.2500 0.2500 (   778 PWs)   bands (ev):

    -5.0550   2.0728   5.2294   5.2294

          k = 0.4167 0.4167 0.0833 (   775 PWs)   bands (ev):

    -4.3872   1.1410   3.1311   5.0622

          k =-0.4167-0.4167 0.0833 (   775 PWs)   bands (ev):

    -4.3882   1.1488   3.1238   5.0638

          k =-0.4167-0.4167 0.9167 (   769 PWs)   bands (ev):

    -3.2313  -0.2776   2.0375   4.2892

          k = 0.4167 0.4167 0.9167 (   769 PWs)   bands (ev):

    -3.2286  -0.2866   2.0443   4.2883

          k =-0.2500-0.2500 0.7500 (   768 PWs)   bands (ev):

    -3.1816  -0.3493   2.5003   3.8151

          k = 0.2500 0.2500 0.7500 (   768 PWs)   bands (ev):

    -3.1759  -0.3659   2.5132   3.8138

          k = 0.5833 0.2500 0.2500 (   773 PWs)   bands (ev):

    -3.9699   0.3466   3.5817   4.1812

          k =-0.2500 0.5833-0.2500 (   773 PWs)   bands (ev):

    -3.9736   0.3627   3.5661   4.1834

          k =-0.2500-0.5833 1.0833 (   761 PWs)   bands (ev):

    -2.9851  -0.4038   2.1432   3.4044

          k = 0.2500 0.5833 1.0833 (   761 PWs)   bands (ev):

    -2.9880  -0.3958   2.1384   3.4044

          k =-1.0833-0.2500 0.5833 (   761 PWs)   bands (ev):

    -2.9908  -0.3888   2.1382   3.3994

          k =-0.0833-0.4167 0.9167 (   757 PWs)   bands (ev):

    -2.1740  -1.1227   1.9811   2.7485

          k = 0.0833 0.4167 0.9167 (   757 PWs)   bands (ev):

    -2.1667  -1.1337   1.9838   2.7498

          k =-0.9167-0.0833 0.4167 (   757 PWs)   bands (ev):

    -2.1770  -1.1190   1.9885   2.7403

          k =-1.0833 0.2500 0.2500 (   760 PWs)   bands (ev):

    -2.3740  -1.0375   1.8605   3.6225

          k =-0.2500-1.0833-0.2500 (   760 PWs)   bands (ev):

    -2.3803  -1.0265   1.8551   3.6229

          k = 0.4167 0.4167 0.4167 (   769 PWs)   bands (ev):

    -3.8835  -0.4171   4.8437   4.8437

          k =-0.4167-0.4167 1.2500 (   768 PWs)   bands (ev):

    -3.2893  -0.7218   3.0348   4.4121

          k = 0.4167 0.4167 1.2500 (   768 PWs)   bands (ev):

    -3.2966  -0.7044   3.0232   4.4148

     highest occupied level (ev):     5.8390

!    total energy              =     -93.45337073 Ry
     total all-electron energy =     -1160.145101 Ry
     estimated scf accuracy    <          5.1E-09 Ry

     The total energy is the sum of the following terms:
     one-electron contribution =       5.56253705 Ry
     hartree contribution      =       1.12020972 Ry
     xc contribution           =     -12.28123735 Ry
     ewald contribution        =     -16.67173890 Ry
     one-center paw contrib.   =     -71.18314125 Ry

     convergence has been achieved in   7 iterations


     Computing stress (Cartesian axis) and pressure

          total   stress  (Ry/bohr**3)                   (kbar)     P=       -0.87
  -0.00000594   0.00000447   0.00000447           -0.87        0.66        0.66
   0.00000447  -0.00000594   0.00000447            0.66       -0.87        0.66
   0.00000447   0.00000447  -0.00000594            0.66        0.66       -0.87


     BFGS Geometry Optimization
     Energy error            =      0.0E+00 Ry
     Gradient error          =      0.0E+00 Ry/Bohr
     Cell gradient error     =      8.7E-01 kbar

     number of scf cycles    =   1
     number of bfgs steps    =   0

     enthalpy           new  =     -93.4533707316 Ry

     new trust radius        =       0.0007211376 bohr
ibrav =      2
 celldm(1) =     10.33680910
Input lattice vectors:
    -0.49986987     0.00000000     0.49986987
     0.00011187     0.49998174     0.49998174
    -0.49986987     0.49986987     0.00000000
New lattice vectors in INITIAL alat:
    -0.49986987     0.00000000     0.49986987
     0.00000000     0.49986987     0.49986987
    -0.49986987     0.49986987     0.00000000
New lattice vectors in NEW alat (for information only):
    -0.50000000     0.00000000     0.50000000
     0.00000000     0.50000000     0.50000000
    -0.50000000     0.50000000     0.00000000
Discrepancy in bohr =     0.000000    0.000194    0.000000

Atomic positions rescaled with new alat:
Si            0.0000000000        0.0000000000        0.0000000000    0   0   0
Si            0.2496598657        0.2496598657        0.2496598657    0   0   0
     new conv_thr            =       0.0000000100 Ry

     new unit-cell volume =    276.12104 a.u.^3 (    40.91692 Ang^3 )
     density =      2.27960 g/cm^3

CELL_PARAMETERS (alat= 10.33950000)
  -0.499869873   0.000000000   0.499869873
   0.000000000   0.499869873   0.499869873
  -0.499869873   0.499869873   0.000000000

ATOMIC_POSITIONS (alat)
Si            0.0000000000        0.0000000000        0.0000000000    0   0   0
Si            0.2495948907        0.2495948907        0.2495948907    0   0   0



     Writing config-only to output data dir ./tmp/silicon.save/
     NEW-OLD atomic charge density approx. for the potential

     Check: negative core charge=   -0.000003
     extrapolated charge    7.99375, renormalised to    8.00000

     total cpu time spent up to now is        1.8 secs

     Self-consistent Calculation

     iteration #  1     ecut=    30.00 Ry     beta= 0.70
     Davidson diagonalization with overlap
     ethr =  1.00E-06,  avg # of iterations =  2.0

     Threshold (ethr) on eigenvalues was too large:
     Diagonalizing with lowered threshold

     Davidson diagonalization with overlap
     ethr =  3.16E-09,  avg # of iterations =  2.5

     total cpu time spent up to now is        2.1 secs

     total energy              =     -93.45337104 Ry
     estimated scf accuracy    <       0.00000024 Ry

     iteration #  2     ecut=    30.00 Ry     beta= 0.70
     Davidson diagonalization with overlap
     ethr =  2.98E-09,  avg # of iterations =  3.2

     total cpu time spent up to now is        2.2 secs

     total energy              =     -93.45337150 Ry
     estimated scf accuracy    <       0.00000017 Ry

     iteration #  3     ecut=    30.00 Ry     beta= 0.70
     Davidson diagonalization with overlap
     ethr =  2.15E-09,  avg # of iterations =  1.0

     total cpu time spent up to now is        2.4 secs

     total energy              =     -93.45337148 Ry
     estimated scf accuracy    <       0.00000005 Ry

     iteration #  4     ecut=    30.00 Ry     beta= 0.70
     Davidson diagonalization with overlap
     ethr =  6.82E-10,  avg # of iterations =  2.0

     total cpu time spent up to now is        2.6 secs

     End of self-consistent calculation

          k =-0.0834 0.0834 0.0834 (   752 PWs)   bands (ev):

    -5.7479   5.1228   5.8241   5.8464

          k =-0.2501 0.2501-0.0834 (   772 PWs)   bands (ev):

    -5.2790   3.0567   4.6210   5.6209

          k =-0.4168 0.4168-0.2501 (   768 PWs)   bands (ev):

    -4.2066   0.3323   4.1598   4.9941

          k = 0.4168-0.4168 0.5835 (   771 PWs)   bands (ev):

    -3.5252  -0.7900   4.2232   4.6207

          k = 0.2501-0.2501 0.4168 (   774 PWs)   bands (ev):

    -4.6101   1.1645   4.6803   4.7174

          k = 0.0834-0.0834 0.2501 (   775 PWs)   bands (ev):

    -5.5110   4.0535   5.1967   5.3848

          k =-0.0834 0.4168 0.0834 (   775 PWs)   bands (ev):

    -5.0413   2.8549   4.4667   4.4805

          k =-0.2501 0.5835-0.0834 (   770 PWs)   bands (ev):

    -4.1467   1.0416   3.1641   4.0997

          k = 0.5835-0.2501 0.7502 (   763 PWs)   bands (ev):

    -3.0546  -0.6760   2.5643   3.8833

          k = 0.4168-0.0834 0.5835 (   769 PWs)   bands (ev):

    -3.7584   0.3534   2.5327   4.3620

          k = 0.2501 0.0834 0.4168 (   771 PWs)   bands (ev):

    -4.8189   2.0245   3.8589   5.0174

          k =-0.0834 0.7502 0.0834 (   769 PWs)   bands (ev):

    -3.4451   0.2105   3.1399   3.4656

          k = 0.7502-0.0834 0.9169 (   758 PWs)   bands (ev):

    -2.2710  -1.1093   2.3070   3.0746

          k = 0.5835 0.0834 0.7502 (   759 PWs)   bands (ev):

    -2.6334  -0.7841   1.8365   3.6115

          k = 0.4168 0.2501 0.5835 (   768 PWs)   bands (ev):

    -3.6465  -0.3190   3.4589   4.4556

          k =-0.0834-0.9169 0.0834 (   765 PWs)   bands (ev):

    -2.3587  -1.1181   2.8747   3.2533

          k =-0.2501-0.7502-0.0834 (   766 PWs)   bands (ev):

    -3.2782  -0.0152   2.6268   3.4101

          k =-0.0834-0.5835 0.0834 (   771 PWs)   bands (ev):

    -4.3476   1.5609   3.6750   3.8818

          k =-0.2501 0.2501 0.2501 (   778 PWs)   bands (ev):

    -5.0534   2.0917   5.2207   5.2401

          k =-0.4168 0.4168 0.0834 (   775 PWs)   bands (ev):

    -4.3861   1.1618   3.1330   5.0577

          k = 0.4168-0.4168 0.9169 (   769 PWs)   bands (ev):

    -3.2302  -0.2651   2.0468   4.2860

          k = 0.2501-0.2501 0.7502 (   768 PWs)   bands (ev):

    -3.1770  -0.3466   2.5170   3.8128

          k =-0.2501 0.5835 0.2501 (   773 PWs)   bands (ev):

    -3.9693   0.3649   3.5856   4.1800

          k = 0.5835-0.2501 1.0836 (   761 PWs)   bands (ev):

    -2.9866  -0.3837   2.1490   3.3993

          k = 0.4168-0.0834 0.9169 (   757 PWs)   bands (ev):

    -2.1684  -1.1183   1.9890   2.7508

          k =-0.2501-1.0836 0.2501 (   760 PWs)   bands (ev):

    -2.3787  -1.0174   1.8670   3.6213

          k =-0.4168 0.4168 0.4168 (   769 PWs)   bands (ev):

    -3.8853  -0.3969   4.8368   4.8557

          k = 0.4168-0.4168 1.2503 (   768 PWs)   bands (ev):

    -3.2933  -0.6985   3.0384   4.4103

          k = 0.0834 0.0834 0.0834 (   752 PWs)   bands (ev):

    -5.7478   5.1050   5.8455   5.8455

          k = 0.2501 0.2501-0.0834 (   772 PWs)   bands (ev):

    -5.2787   3.0511   4.6151   5.6371

          k =-0.2501-0.2501-0.0834 (   772 PWs)   bands (ev):

    -5.2783   3.0419   4.6251   5.6352

          k = 0.4168 0.4168-0.2501 (   768 PWs)   bands (ev):

    -4.2061   0.3306   4.1498   5.0083

          k =-0.4168-0.4168-0.2501 (   768 PWs)   bands (ev):

    -4.2030   0.3179   4.1614   5.0042

          k =-0.4168-0.4168 0.5835 (   771 PWs)   bands (ev):

    -3.5253  -0.7897   4.2111   4.6333

          k = 0.4168 0.4168 0.5835 (   771 PWs)   bands (ev):

    -3.5171  -0.8080   4.2242   4.6291

          k =-0.2501-0.2501 0.4168 (   774 PWs)   bands (ev):

    -4.6104   1.1666   4.6935   4.7011

          k = 0.2501 0.2501 0.4168 (   774 PWs)   bands (ev):

    -4.6082   1.1523   4.6903   4.7176

          k =-0.0834-0.0834 0.2501 (   775 PWs)   bands (ev):

    -5.5111   4.0584   5.2092   5.3652

          k = 0.0834 0.0834 0.2501 (   775 PWs)   bands (ev):

    -5.5108   4.0411   5.2079   5.3876

          k = 0.4168 0.0834 0.0834 (   775 PWs)   bands (ev):

    -5.0409   2.8462   4.4694   4.4876

          k =-0.0834 0.4168-0.0834 (   775 PWs)   bands (ev):

    -5.0415   2.8606   4.4514   4.4886

          k = 0.5835 0.2501-0.0834 (   770 PWs)   bands (ev):

    -4.1456   1.0338   3.1670   4.1062

          k =-0.5835-0.2501-0.0834 (   770 PWs)   bands (ev):

    -4.1446   1.0270   3.1726   4.1059

          k = 0.0834 0.5835-0.2501 (   770 PWs)   bands (ev):

    -4.1466   1.0389   3.1725   4.0939

          k =-0.2501-0.5835 0.7502 (   763 PWs)   bands (ev):

    -3.0543  -0.6772   2.5692   3.8798

          k = 0.2501 0.5835 0.7502 (   763 PWs)   bands (ev):

    -3.0466  -0.6945   2.5754   3.8827

          k =-0.7502-0.2501 0.5835 (   763 PWs)   bands (ev):

    -3.0553  -0.6761   2.5763   3.8712

          k =-0.0834-0.4168 0.5835 (   769 PWs)   bands (ev):

    -3.7604   0.3610   2.5345   4.3525

          k = 0.0834 0.4168 0.5835 (   769 PWs)   bands (ev):

    -3.7568   0.3456   2.5393   4.3610

          k =-0.5835-0.0834 0.4168 (   769 PWs)   bands (ev):

    -3.7604   0.3600   2.5377   4.3499

          k = 0.0834-0.2501 0.4168 (   771 PWs)   bands (ev):

    -4.8201   2.0379   3.8567   5.0042

          k =-0.0834 0.2501 0.4168 (   771 PWs)   bands (ev):

    -4.8195   2.0325   3.8510   5.0187

          k =-0.4168 0.0834 0.2501 (   771 PWs)   bands (ev):

    -4.8202   2.0398   3.8529   5.0061

          k = 0.7502 0.0834 0.0834 (   769 PWs)   bands (ev):

    -3.4441   0.2069   3.1364   3.4722

          k =-0.0834 0.7502-0.0834 (   769 PWs)   bands (ev):

    -3.4456   0.2131   3.1299   3.4726

          k =-0.0834-0.7502 0.9169 (   758 PWs)   bands (ev):

    -2.2702  -1.1114   2.3144   3.0691

          k = 0.0834 0.7502 0.9169 (   758 PWs)   bands (ev):

    -2.2660  -1.1172   2.3103   3.0747

          k =-0.9169-0.0834 0.7502 (   758 PWs)   bands (ev):

    -2.2723  -1.1082   2.3154   3.0666

          k = 0.0834-0.5835 0.7502 (   759 PWs)   bands (ev):

    -2.6424  -0.7674   1.8374   3.6024

          k =-0.0834 0.5835 0.7502 (   759 PWs)   bands (ev):

    -2.6382  -0.7737   1.8305   3.6119

          k =-0.7502 0.0834 0.5835 (   759 PWs)   bands (ev):

    -2.6419  -0.7679   1.8353   3.6049

          k = 0.2501-0.4168 0.5835 (   768 PWs)   bands (ev):

    -3.6523  -0.3030   3.4605   4.4427

          k =-0.2501 0.4168 0.5835 (   768 PWs)   bands (ev):

    -3.6516  -0.3044   3.4489   4.4574

          k =-0.5835 0.2501 0.4168 (   768 PWs)   bands (ev):

    -3.6524  -0.3020   3.4512   4.4520

          k =-0.9169 0.0834 0.0834 (   765 PWs)   bands (ev):

    -2.3590  -1.1172   2.8671   3.2598

          k =-0.0834-0.9169-0.0834 (   765 PWs)   bands (ev):

    -2.3567  -1.1209   2.8691   3.2597

          k =-0.7502 0.2501-0.0834 (   766 PWs)   bands (ev):

    -3.2813  -0.0054   2.6291   3.3999

          k = 0.7502-0.2501-0.0834 (   766 PWs)   bands (ev):

    -3.2815  -0.0035   2.6185   3.4086

          k = 0.0834-0.7502-0.2501 (   766 PWs)   bands (ev):

    -3.2799  -0.0098   2.6257   3.4078

          k =-0.5835 0.0834 0.0834 (   771 PWs)   bands (ev):

    -4.3480   1.5653   3.6617   3.8897

          k =-0.0834-0.5835-0.0834 (   771 PWs)   bands (ev):

    -4.3470   1.5553   3.6737   3.8890

          k = 0.2501 0.2501 0.2501 (   778 PWs)   bands (ev):

    -5.0521   2.0790   5.2364   5.2364

          k = 0.4168 0.4168 0.0834 (   775 PWs)   bands (ev):

    -4.3838   1.1472   3.1367   5.0692

          k =-0.4168-0.4168 0.0834 (   775 PWs)   bands (ev):

    -4.3848   1.1550   3.1294   5.0708

          k =-0.4168-0.4168 0.9169 (   769 PWs)   bands (ev):

    -3.2271  -0.2720   2.0421   4.2956

          k = 0.4168 0.4168 0.9169 (   769 PWs)   bands (ev):

    -3.2243  -0.2810   2.0489   4.2947

          k =-0.2501-0.2501 0.7502 (   768 PWs)   bands (ev):

    -3.1773  -0.3437   2.5054   3.8211

          k = 0.2501 0.2501 0.7502 (   768 PWs)   bands (ev):

    -3.1716  -0.3604   2.5183   3.8198

          k = 0.5835 0.2501 0.2501 (   773 PWs)   bands (ev):

    -3.9662   0.3521   3.5879   4.1874

          k =-0.2501 0.5835-0.2501 (   773 PWs)   bands (ev):

    -3.9699   0.3682   3.5723   4.1897

          k =-0.2501-0.5835 1.0836 (   761 PWs)   bands (ev):

    -2.9807  -0.3980   2.1478   3.4099

          k = 0.2501 0.5835 1.0836 (   761 PWs)   bands (ev):

    -2.9836  -0.3900   2.1431   3.4099

          k =-1.0836-0.2501 0.5835 (   761 PWs)   bands (ev):

    -2.9863  -0.3830   2.1429   3.4048

          k =-0.0834-0.4168 0.9169 (   757 PWs)   bands (ev):

    -2.1689  -1.1171   1.9854   2.7534

          k = 0.0834 0.4168 0.9169 (   757 PWs)   bands (ev):

    -2.1616  -1.1281   1.9881   2.7547

          k =-0.9169-0.0834 0.4168 (   757 PWs)   bands (ev):

    -2.1719  -1.1134   1.9928   2.7452

          k =-1.0836 0.2501 0.2501 (   760 PWs)   bands (ev):

    -2.3691  -1.0321   1.8647   3.6283

          k =-0.2501-1.0836-0.2501 (   760 PWs)   bands (ev):

    -2.3753  -1.0211   1.8593   3.6288

          k = 0.4168 0.4168 0.4168 (   769 PWs)   bands (ev):

    -3.8796  -0.4125   4.8506   4.8506

          k =-0.4168-0.4168 1.2503 (   768 PWs)   bands (ev):

    -3.2849  -0.7172   3.0406   4.4186

          k = 0.4168 0.4168 1.2503 (   768 PWs)   bands (ev):

    -3.2922  -0.6998   3.0290   4.4213

     highest occupied level (ev):     5.8464

!    total energy              =     -93.45337149 Ry
     total all-electron energy =     -1160.145101 Ry
     estimated scf accuracy    <          7.9E-09 Ry

     The total energy is the sum of the following terms:
     one-electron contribution =       5.56862404 Ry
     hartree contribution      =       1.11956418 Ry
     xc contribution           =     -12.28220203 Ry
     ewald contribution        =     -16.67607892 Ry
     one-center paw contrib.   =     -71.18327876 Ry

     convergence has been achieved in   4 iterations


     Computing stress (Cartesian axis) and pressure

          total   stress  (Ry/bohr**3)                   (kbar)     P=       -0.15
  -0.00000099   0.00000449   0.00000449           -0.15        0.66        0.66
   0.00000449  -0.00000099   0.00000449            0.66       -0.15        0.66
   0.00000449   0.00000449  -0.00000099            0.66        0.66       -0.15

     Energy error            =      7.5E-07 Ry
     Gradient error          =      0.0E+00 Ry/Bohr
     Cell gradient error     =      6.6E-01 kbar

     number of scf cycles    =   2
     number of bfgs steps    =   1

     enthalpy           old  =     -93.4533707316 Ry
     enthalpy           new  =     -93.4533714857 Ry

     CASE: enthalpy          _new < enthalpy          _old

     new trust radius        =       0.0005563341 bohr
ibrav =      2
 celldm(1) =     10.33510269
Input lattice vectors:
    -0.49978735    -0.00000000     0.49978735
     0.00011231     0.49989967     0.49989967
    -0.49978735     0.49978735    -0.00000000
New lattice vectors in INITIAL alat:
    -0.49978735     0.00000000     0.49978735
     0.00000000     0.49978735     0.49978735
    -0.49978735     0.49978735     0.00000000
New lattice vectors in NEW alat (for information only):
    -0.50000000     0.00000000     0.50000000
     0.00000000     0.50000000     0.50000000
    -0.50000000     0.50000000     0.00000000
Discrepancy in bohr =     0.000000    0.000195    0.000000

Atomic positions rescaled with new alat:
Si            0.0000000000        0.0000000000        0.0000000000    0   0   0
Si            0.2496598657        0.2496598657        0.2496598657    0   0   0
     new conv_thr            =            1.0E-10 Ry

     new unit-cell volume =    275.98431 a.u.^3 (    40.89666 Ang^3 )
     density =      2.28073 g/cm^3

CELL_PARAMETERS (alat= 10.33950000)
  -0.499787354   0.000000000   0.499787354
   0.000000000   0.499787354   0.499787354
  -0.499787354   0.499787354   0.000000000

ATOMIC_POSITIONS (alat)
Si            0.0000000000        0.0000000000        0.0000000000    0   0   0
Si            0.2495536872        0.2495536872        0.2495536872    0   0   0



     Writing config-only to output data dir ./tmp/silicon.save/
     NEW-OLD atomic charge density approx. for the potential

     Check: negative core charge=   -0.000003
     extrapolated charge    7.99604, renormalised to    8.00000

     total cpu time spent up to now is        2.7 secs

     Self-consistent Calculation

     iteration #  1     ecut=    30.00 Ry     beta= 0.70
     Davidson diagonalization with overlap
     ethr =  1.00E-06,  avg # of iterations =  2.0

     Threshold (ethr) on eigenvalues was too large:
     Diagonalizing with lowered threshold

     Davidson diagonalization with overlap
     ethr =  1.08E-09,  avg # of iterations =  3.0

     total cpu time spent up to now is        3.0 secs

     total energy              =     -93.45337127 Ry
     estimated scf accuracy    <       0.00000008 Ry

     iteration #  2     ecut=    30.00 Ry     beta= 0.70
     Davidson diagonalization with overlap
     ethr =  9.80E-10,  avg # of iterations =  3.6

     total cpu time spent up to now is        3.2 secs

     total energy              =     -93.45337145 Ry
     estimated scf accuracy    <       0.00000007 Ry

     iteration #  3     ecut=    30.00 Ry     beta= 0.70
     Davidson diagonalization with overlap
     ethr =  9.14E-10,  avg # of iterations =  1.0

     total cpu time spent up to now is        3.4 secs

     total energy              =     -93.45337144 Ry
     estimated scf accuracy    <       0.00000003 Ry

     iteration #  4     ecut=    30.00 Ry     beta= 0.70
     Davidson diagonalization with overlap
     ethr =  3.14E-10,  avg # of iterations =  2.0

     total cpu time spent up to now is        3.5 secs

     total energy              =     -93.45337144 Ry
     estimated scf accuracy    <          3.3E-09 Ry

     iteration #  5     ecut=    30.00 Ry     beta= 0.70
     Davidson diagonalization with overlap
     ethr =  4.09E-11,  avg # of iterations =  1.1

     total cpu time spent up to now is        3.7 secs

     End of self-consistent calculation

          k =-0.0834 0.0834 0.0834 (   752 PWs)   bands (ev):

    -5.7459   5.1281   5.8294   5.8517

          k =-0.2501 0.2501-0.0834 (   772 PWs)   bands (ev):

    -5.2768   3.0616   4.6256   5.6261

          k =-0.4168 0.4168-0.2501 (   768 PWs)   bands (ev):

    -4.2039   0.3361   4.1644   4.9991

          k = 0.4168-0.4168 0.5836 (   771 PWs)   bands (ev):

    -3.5220  -0.7869   4.2280   4.6255

          k = 0.2501-0.2501 0.4168 (   774 PWs)   bands (ev):

    -4.6076   1.1687   4.6850   4.7224

          k = 0.0834-0.0834 0.2501 (   775 PWs)   bands (ev):

    -5.5090   4.0588   5.2016   5.3900

          k =-0.0834 0.4168 0.0834 (   775 PWs)   bands (ev):

    -5.0390   2.8602   4.4714   4.4851

          k =-0.2501 0.5836-0.0834 (   770 PWs)   bands (ev):

    -4.1440   1.0462   3.1680   4.1041

          k = 0.5836-0.2501 0.7503 (   763 PWs)   bands (ev):

    -3.0512  -0.6724   2.5681   3.8875

          k = 0.4168-0.0834 0.5836 (   769 PWs)   bands (ev):

    -3.7554   0.3577   2.5363   4.3666

          k = 0.2501 0.0834 0.4168 (   771 PWs)   bands (ev):

    -4.8165   2.0293   3.8633   5.0223

          k =-0.0834 0.7503 0.0834 (   769 PWs)   bands (ev):

    -3.4420   0.2151   3.1438   3.4697

          k = 0.7503-0.0834 0.9171 (   758 PWs)   bands (ev):

    -2.2674  -1.1052   2.3103   3.0785

          k = 0.5836 0.0834 0.7503 (   759 PWs)   bands (ev):

    -2.6299  -0.7801   1.8396   3.6156

          k = 0.4168 0.2501 0.5836 (   768 PWs)   bands (ev):

    -3.6435  -0.3154   3.4633   4.4602

          k =-0.0834-0.9171 0.0834 (   765 PWs)   bands (ev):

    -2.3551  -1.1140   2.8784   3.2573

          k =-0.2501-0.7503-0.0834 (   766 PWs)   bands (ev):

    -3.2750  -0.0107   2.6303   3.4141

          k =-0.0834-0.5836 0.0834 (   771 PWs)   bands (ev):

    -4.3450   1.5660   3.6791   3.8861

          k =-0.2501 0.2501 0.2501 (   778 PWs)   bands (ev):

    -5.0511   2.0961   5.2258   5.2451

          k =-0.4168 0.4168 0.0834 (   775 PWs)   bands (ev):

    -4.3835   1.1662   3.1369   5.0627

          k = 0.4168-0.4168 0.9171 (   769 PWs)   bands (ev):

    -3.2270  -0.2610   2.0501   4.2905

          k = 0.2501-0.2501 0.7503 (   768 PWs)   bands (ev):

    -3.1737  -0.3426   2.5206   3.8171

          k =-0.2501 0.5836 0.2501 (   773 PWs)   bands (ev):

    -3.9665   0.3689   3.5901   4.1845

          k = 0.5836-0.2501 1.0838 (   761 PWs)   bands (ev):

    -2.9832  -0.3795   2.1523   3.4032

          k = 0.4168-0.0834 0.9171 (   757 PWs)   bands (ev):

    -2.1646  -1.1142   1.9921   2.7544

          k =-0.2501-1.0838 0.2501 (   760 PWs)   bands (ev):

    -2.3750  -1.0134   1.8700   3.6255

          k =-0.4168 0.4168 0.4168 (   769 PWs)   bands (ev):

    -3.8824  -0.3936   4.8417   4.8606

          k = 0.4168-0.4168 1.2505 (   768 PWs)   bands (ev):

    -3.2900  -0.6951   3.0425   4.4149

          k = 0.0834 0.0834 0.0834 (   752 PWs)   bands (ev):

    -5.7458   5.1104   5.8508   5.8508

          k = 0.2501 0.2501-0.0834 (   772 PWs)   bands (ev):

    -5.2765   3.0561   4.6197   5.6423

          k =-0.2501-0.2501-0.0834 (   772 PWs)   bands (ev):

    -5.2761   3.0468   4.6298   5.6404

          k = 0.4168 0.4168-0.2501 (   768 PWs)   bands (ev):

    -4.2034   0.3344   4.1545   5.0133

          k =-0.4168-0.4168-0.2501 (   768 PWs)   bands (ev):

    -4.2003   0.3217   4.1661   5.0092

          k =-0.4168-0.4168 0.5836 (   771 PWs)   bands (ev):

    -3.5221  -0.7865   4.2158   4.6381

          k = 0.4168 0.4168 0.5836 (   771 PWs)   bands (ev):

    -3.5139  -0.8048   4.2290   4.6338

          k =-0.2501-0.2501 0.4168 (   774 PWs)   bands (ev):

    -4.6079   1.1708   4.6983   4.7061

          k = 0.2501 0.2501 0.4168 (   774 PWs)   bands (ev):

    -4.6057   1.1565   4.6951   4.7226

          k =-0.0834-0.0834 0.2501 (   775 PWs)   bands (ev):

    -5.5091   4.0637   5.2141   5.3704

          k = 0.0834 0.0834 0.2501 (   775 PWs)   bands (ev):

    -5.5087   4.0464   5.2128   5.3928

          k = 0.4168 0.0834 0.0834 (   775 PWs)   bands (ev):

    -5.0386   2.8514   4.4741   4.4921

          k =-0.0834 0.4168-0.0834 (   775 PWs)   bands (ev):

    -5.0393   2.8659   4.4561   4.4931

          k = 0.5836 0.2501-0.0834 (   770 PWs)   bands (ev):

    -4.1429   1.0384   3.1709   4.1106

          k =-0.5836-0.2501-0.0834 (   770 PWs)   bands (ev):

    -4.1419   1.0317   3.1765   4.1103

          k = 0.0834 0.5836-0.2501 (   770 PWs)   bands (ev):

    -4.1438   1.0436   3.1764   4.0983

          k =-0.2501-0.5836 0.7503 (   763 PWs)   bands (ev):

    -3.0510  -0.6736   2.5730   3.8841

          k = 0.2501 0.5836 0.7503 (   763 PWs)   bands (ev):

    -3.0432  -0.6909   2.5792   3.8870

          k =-0.7503-0.2501 0.5836 (   763 PWs)   bands (ev):

    -3.0519  -0.6725   2.5801   3.8754

          k =-0.0834-0.4168 0.5836 (   769 PWs)   bands (ev):

    -3.7575   0.3653   2.5382   4.3571

          k = 0.0834 0.4168 0.5836 (   769 PWs)   bands (ev):

    -3.7538   0.3499   2.5429   4.3655

          k =-0.5836-0.0834 0.4168 (   769 PWs)   bands (ev):

    -3.7575   0.3643   2.5413   4.3545

          k = 0.0834-0.2501 0.4168 (   771 PWs)   bands (ev):

    -4.8177   2.0426   3.8610   5.0092

          k =-0.0834 0.2501 0.4168 (   771 PWs)   bands (ev):

    -4.8171   2.0372   3.8553   5.0237

          k =-0.4168 0.0834 0.2501 (   771 PWs)   bands (ev):

    -4.8178   2.0445   3.8572   5.0111

          k = 0.7503 0.0834 0.0834 (   769 PWs)   bands (ev):

    -3.4411   0.2116   3.1402   3.4763

          k =-0.0834 0.7503-0.0834 (   769 PWs)   bands (ev):

    -3.4426   0.2177   3.1337   3.4767

          k =-0.0834-0.7503 0.9171 (   758 PWs)   bands (ev):

    -2.2666  -1.1073   2.3177   3.0730

          k = 0.0834 0.7503 0.9171 (   758 PWs)   bands (ev):

    -2.2624  -1.1131   2.3136   3.0785

          k =-0.9171-0.0834 0.7503 (   758 PWs)   bands (ev):

    -2.2687  -1.1041   2.3187   3.0704

          k = 0.0834-0.5836 0.7503 (   759 PWs)   bands (ev):

    -2.6389  -0.7634   1.8405   3.6065

          k =-0.0834 0.5836 0.7503 (   759 PWs)   bands (ev):

    -2.6346  -0.7697   1.8336   3.6161

          k =-0.7503 0.0834 0.5836 (   759 PWs)   bands (ev):

    -2.6384  -0.7639   1.8384   3.6090

          k = 0.2501-0.4168 0.5836 (   768 PWs)   bands (ev):

    -3.6493  -0.2995   3.4648   4.4473

          k =-0.2501 0.4168 0.5836 (   768 PWs)   bands (ev):

    -3.6485  -0.3009   3.4532   4.4620

          k =-0.5836 0.2501 0.4168 (   768 PWs)   bands (ev):

    -3.6494  -0.2985   3.4556   4.4567

          k =-0.9171 0.0834 0.0834 (   765 PWs)   bands (ev):

    -2.3555  -1.1131   2.8708   3.2638

          k =-0.0834-0.9171-0.0834 (   765 PWs)   bands (ev):

    -2.3532  -1.1168   2.8728   3.2637

          k =-0.7503 0.2501-0.0834 (   766 PWs)   bands (ev):

    -3.2782  -0.0009   2.6327   3.4039

          k = 0.7503-0.2501-0.0834 (   766 PWs)   bands (ev):

    -3.2783   0.0010   2.6221   3.4126

          k = 0.0834-0.7503-0.2501 (   766 PWs)   bands (ev):

    -3.2767  -0.0053   2.6292   3.4118

          k =-0.5836 0.0834 0.0834 (   771 PWs)   bands (ev):

    -4.3454   1.5704   3.6659   3.8939

          k =-0.0834-0.5836-0.0834 (   771 PWs)   bands (ev):

    -4.3444   1.5604   3.6779   3.8933

          k = 0.2501 0.2501 0.2501 (   778 PWs)   bands (ev):

    -5.0498   2.0834   5.2415   5.2415

          k = 0.4168 0.4168 0.0834 (   775 PWs)   bands (ev):

    -4.3812   1.1516   3.1406   5.0742

          k =-0.4168-0.4168 0.0834 (   775 PWs)   bands (ev):

    -4.3822   1.1594   3.1333   5.0757

          k =-0.4168-0.4168 0.9171 (   769 PWs)   bands (ev):

    -3.2238  -0.2680   2.0454   4.3002

          k = 0.4168 0.4168 0.9171 (   769 PWs)   bands (ev):

    -3.2211  -0.2770   2.0522   4.2993

          k =-0.2501-0.2501 0.7503 (   768 PWs)   bands (ev):

    -3.1741  -0.3397   2.5090   3.8254

          k = 0.2501 0.2501 0.7503 (   768 PWs)   bands (ev):

    -3.1684  -0.3564   2.5219   3.8241

          k = 0.5836 0.2501 0.2501 (   773 PWs)   bands (ev):

    -3.9634   0.3562   3.5923   4.1919

          k =-0.2501 0.5836-0.2501 (   773 PWs)   bands (ev):

    -3.9671   0.3722   3.5768   4.1942

          k =-0.2501-0.5836 1.0838 (   761 PWs)   bands (ev):

    -2.9773  -0.3938   2.1512   3.4138

          k = 0.2501 0.5836 1.0838 (   761 PWs)   bands (ev):

    -2.9802  -0.3858   2.1464   3.4138

          k =-1.0838-0.2501 0.5836 (   761 PWs)   bands (ev):

    -2.9830  -0.3788   2.1462   3.4088

          k =-0.0834-0.4168 0.9171 (   757 PWs)   bands (ev):

    -2.1651  -1.1130   1.9885   2.7570

          k = 0.0834 0.4168 0.9171 (   757 PWs)   bands (ev):

    -2.1579  -1.1240   1.9912   2.7582

          k =-0.9171-0.0834 0.4168 (   757 PWs)   bands (ev):

    -2.1682  -1.1093   1.9959   2.7488

          k =-1.0838 0.2501 0.2501 (   760 PWs)   bands (ev):

    -2.3654  -1.0281   1.8678   3.6326

          k =-0.2501-1.0838-0.2501 (   760 PWs)   bands (ev):

    -2.3717  -1.0171   1.8624   3.6330

          k = 0.4168 0.4168 0.4168 (   769 PWs)   bands (ev):

    -3.8767  -0.4092   4.8555   4.8555

          k =-0.4168-0.4168 1.2505 (   768 PWs)   bands (ev):

    -3.2816  -0.7138   3.0448   4.4233

          k = 0.4168 0.4168 1.2505 (   768 PWs)   bands (ev):

    -3.2890  -0.6964   3.0331   4.4259

     highest occupied level (ev):     5.8517

!    total energy              =     -93.45337144 Ry
     total all-electron energy =     -1160.145101 Ry
     estimated scf accuracy    <          6.4E-11 Ry

     The total energy is the sum of the following terms:
     one-electron contribution =       5.57249615 Ry
     hartree contribution      =       1.11909545 Ry
     xc contribution           =     -12.28278195 Ry
     ewald contribution        =     -16.67883229 Ry
     one-center paw contrib.   =     -71.18334880 Ry

     convergence has been achieved in   5 iterations


     Computing stress (Cartesian axis) and pressure

          total   stress  (Ry/bohr**3)                   (kbar)     P=        0.27
   0.00000185   0.00000450   0.00000450            0.27        0.66        0.66
   0.00000450   0.00000185   0.00000450            0.66        0.27        0.66
   0.00000450   0.00000450   0.00000185            0.66        0.66        0.27

     Energy error            =      4.6E-08 Ry
     Gradient error          =      0.0E+00 Ry/Bohr
     Cell gradient error     =      6.6E-01 kbar

     number of scf cycles    =   3
     number of bfgs steps    =   2

     enthalpy           old  =     -93.4533714857 Ry
     enthalpy           new  =     -93.4533714401 Ry

     CASE: enthalpy          _new > enthalpy          _old

     new trust radius        =       0.0002051526 bohr
ibrav =      2
 celldm(1) =     10.33617096
Input lattice vectors:
    -0.49983901     0.00000000     0.49983901
     0.00000000     0.49983901     0.49983901
    -0.49983901     0.49983901     0.00000000
New lattice vectors in INITIAL alat:
    -0.49983901     0.00000000     0.49983901
     0.00000000     0.49983901     0.49983901
    -0.49983901     0.49983901     0.00000000
New lattice vectors in NEW alat (for information only):
    -0.50000000     0.00000000     0.50000000
     0.00000000     0.50000000     0.50000000
    -0.50000000     0.50000000     0.00000000
Discrepancy in bohr =     0.000000    0.000000    0.000000

Atomic positions rescaled with new alat:
Si            0.0000000000        0.0000000000        0.0000000000    0   0   0
Si            0.2496598657        0.2496598657        0.2496598657    0   0   0
     new conv_thr            =            1.0E-10 Ry

     new unit-cell volume =    276.06990 a.u.^3 (    40.90934 Ang^3 )
     density =      2.28002 g/cm^3

CELL_PARAMETERS (alat= 10.33950000)
  -0.499839013   0.000000000   0.499839013
   0.000000000   0.499839013   0.499839013
  -0.499839013   0.499839013   0.000000000

ATOMIC_POSITIONS (alat)
Si            0.0000000000        0.0000000000        0.0000000000    0   0   0
Si            0.2495794819        0.2495794819        0.2495794819    0   0   0



     Writing config-only to output data dir ./tmp/silicon.save/
     NEW-OLD atomic charge density approx. for the potential

     Check: negative core charge=   -0.000003
     extrapolated charge    8.00248, renormalised to    8.00000

     total cpu time spent up to now is        3.9 secs

     Self-consistent Calculation

     iteration #  1     ecut=    30.00 Ry     beta= 0.70
     Davidson diagonalization with overlap
     ethr =  1.00E-06,  avg # of iterations =  2.0

     Threshold (ethr) on eigenvalues was too large:
     Diagonalizing with lowered threshold

     Davidson diagonalization with overlap
     ethr =  4.83E-10,  avg # of iterations =  2.8

     total cpu time spent up to now is        4.2 secs

     total energy              =     -93.45337144 Ry
     estimated scf accuracy    <       0.00000004 Ry

     iteration #  2     ecut=    30.00 Ry     beta= 0.70
     Davidson diagonalization with overlap
     ethr =  4.54E-10,  avg # of iterations =  3.2

     total cpu time spent up to now is        4.4 secs

     total energy              =     -93.45337152 Ry
     estimated scf accuracy    <       0.00000003 Ry

     iteration #  3     ecut=    30.00 Ry     beta= 0.70
     Davidson diagonalization with overlap
     ethr =  3.35E-10,  avg # of iterations =  1.0

     total cpu time spent up to now is        4.5 secs

     total energy              =     -93.45337152 Ry
     estimated scf accuracy    <          8.6E-09 Ry

     iteration #  4     ecut=    30.00 Ry     beta= 0.70
     Davidson diagonalization with overlap
     ethr =  1.07E-10,  avg # of iterations =  2.0

     total cpu time spent up to now is        4.7 secs

     total energy              =     -93.45337152 Ry
     estimated scf accuracy    <          1.2E-09 Ry

     iteration #  5     ecut=    30.00 Ry     beta= 0.70
     Davidson diagonalization with overlap
     ethr =  1.51E-11,  avg # of iterations =  1.2

     total cpu time spent up to now is        4.9 secs

     End of self-consistent calculation

          k =-0.0834 0.0834 0.0834 (   752 PWs)   bands (ev):

    -5.7470   5.1249   5.8263   5.8486

          k =-0.2501 0.2501-0.0834 (   772 PWs)   bands (ev):

    -5.2781   3.0587   4.6229   5.6230

          k =-0.4168 0.4168-0.2501 (   768 PWs)   bands (ev):

    -4.2055   0.3339   4.1617   4.9962

          k = 0.4168-0.4168 0.5835 (   771 PWs)   bands (ev):

    -3.5239  -0.7887   4.2252   4.6227

          k = 0.2501-0.2501 0.4168 (   774 PWs)   bands (ev):

    -4.6090   1.1663   4.6823   4.7194

          k = 0.0834-0.0834 0.2501 (   775 PWs)   bands (ev):

    -5.5101   4.0556   5.1987   5.3869

          k =-0.0834 0.4168 0.0834 (   775 PWs)   bands (ev):

    -5.0403   2.8571   4.4687   4.4824

          k =-0.2501 0.5835-0.0834 (   770 PWs)   bands (ev):

    -4.1456   1.0435   3.1657   4.1015

          k = 0.5835-0.2501 0.7502 (   763 PWs)   bands (ev):

    -3.0531  -0.6745   2.5659   3.8850

          k = 0.4168-0.0834 0.5835 (   769 PWs)   bands (ev):

    -3.7571   0.3552   2.5342   4.3639

          k = 0.2501 0.0834 0.4168 (   771 PWs)   bands (ev):

    -4.8178   2.0265   3.8607   5.0194

          k =-0.0834 0.7502 0.0834 (   769 PWs)   bands (ev):

    -3.4438   0.2124   3.1415   3.4673

          k = 0.7502-0.0834 0.9170 (   758 PWs)   bands (ev):

    -2.2695  -1.1076   2.3084   3.0762

          k = 0.5835 0.0834 0.7502 (   759 PWs)   bands (ev):

    -2.6319  -0.7824   1.8378   3.6132

          k = 0.4168 0.2501 0.5835 (   768 PWs)   bands (ev):

    -3.6452  -0.3175   3.4607   4.4575

          k =-0.0834-0.9170 0.0834 (   765 PWs)   bands (ev):

    -2.3572  -1.1163   2.8762   3.2549

          k =-0.2501-0.7502-0.0834 (   766 PWs)   bands (ev):

    -3.2768  -0.0134   2.6282   3.4118

          k =-0.0834-0.5835 0.0834 (   771 PWs)   bands (ev):

    -4.3465   1.5630   3.6767   3.8836

          k =-0.2501 0.2501 0.2501 (   778 PWs)   bands (ev):

    -5.0524   2.0935   5.2228   5.2421

          k =-0.4168 0.4168 0.0834 (   775 PWs)   bands (ev):

    -4.3850   1.1636   3.1346   5.0597

          k = 0.4168-0.4168 0.9170 (   769 PWs)   bands (ev):

    -3.2288  -0.2634   2.0482   4.2879

          k = 0.2501-0.2501 0.7502 (   768 PWs)   bands (ev):

    -3.1756  -0.3450   2.5185   3.8146

          k =-0.2501 0.5835 0.2501 (   773 PWs)   bands (ev):

    -3.9681   0.3666   3.5875   4.1819

          k = 0.5835-0.2501 1.0837 (   761 PWs)   bands (ev):

    -2.9851  -0.3819   2.1504   3.4009

          k = 0.4168-0.0834 0.9170 (   757 PWs)   bands (ev):

    -2.1668  -1.1166   1.9903   2.7523

          k =-0.2501-1.0837 0.2501 (   760 PWs)   bands (ev):

    -2.3772  -1.0157   1.8682   3.6230

          k =-0.4168 0.4168 0.4168 (   769 PWs)   bands (ev):

    -3.8840  -0.3955   4.8388   4.8577

          k = 0.4168-0.4168 1.2504 (   768 PWs)   bands (ev):

    -3.2919  -0.6971   3.0401   4.4122

          k = 0.0834 0.0834 0.0834 (   752 PWs)   bands (ev):

    -5.7469   5.1072   5.8477   5.8477

          k = 0.2501 0.2501-0.0834 (   772 PWs)   bands (ev):

    -5.2777   3.0531   4.6170   5.6392

          k =-0.2501-0.2501-0.0834 (   772 PWs)   bands (ev):

    -5.2773   3.0439   4.6270   5.6374

          k = 0.4168 0.4168-0.2501 (   768 PWs)   bands (ev):

    -4.2049   0.3322   4.1517   5.0104

          k =-0.4168-0.4168-0.2501 (   768 PWs)   bands (ev):

    -4.2018   0.3195   4.1633   5.0063

          k =-0.4168-0.4168 0.5835 (   771 PWs)   bands (ev):

    -3.5239  -0.7884   4.2130   4.6353

          k = 0.4168 0.4168 0.5835 (   771 PWs)   bands (ev):

    -3.5158  -0.8066   4.2261   4.6310

          k =-0.2501-0.2501 0.4168 (   774 PWs)   bands (ev):

    -4.6093   1.1683   4.6955   4.7031

          k = 0.2501 0.2501 0.4168 (   774 PWs)   bands (ev):

    -4.6071   1.1540   4.6923   4.7197

          k =-0.0834-0.0834 0.2501 (   775 PWs)   bands (ev):

    -5.5102   4.0606   5.2112   5.3674

          k = 0.0834 0.0834 0.2501 (   775 PWs)   bands (ev):

    -5.5099   4.0433   5.2099   5.3897

          k = 0.4168 0.0834 0.0834 (   775 PWs)   bands (ev):

    -5.0399   2.8483   4.4713   4.4895

          k =-0.0834 0.4168-0.0834 (   775 PWs)   bands (ev):

    -5.0405   2.8628   4.4533   4.4905

          k = 0.5835 0.2501-0.0834 (   770 PWs)   bands (ev):

    -4.1444   1.0357   3.1686   4.1080

          k =-0.5835-0.2501-0.0834 (   770 PWs)   bands (ev):

    -4.1434   1.0290   3.1742   4.1077

          k = 0.0834 0.5835-0.2501 (   770 PWs)   bands (ev):

    -4.1454   1.0409   3.1741   4.0957

          k =-0.2501-0.5835 0.7502 (   763 PWs)   bands (ev):

    -3.0529  -0.6757   2.5708   3.8816

          k = 0.2501 0.5835 0.7502 (   763 PWs)   bands (ev):

    -3.0452  -0.6930   2.5770   3.8845

          k =-0.7502-0.2501 0.5835 (   763 PWs)   bands (ev):

    -3.0538  -0.6746   2.5779   3.8729

          k =-0.0834-0.4168 0.5835 (   769 PWs)   bands (ev):

    -3.7592   0.3628   2.5360   4.3544

          k = 0.0834 0.4168 0.5835 (   769 PWs)   bands (ev):

    -3.7555   0.3474   2.5408   4.3629

          k =-0.5835-0.0834 0.4168 (   769 PWs)   bands (ev):

    -3.7591   0.3618   2.5392   4.3518

          k = 0.0834-0.2501 0.4168 (   771 PWs)   bands (ev):

    -4.8190   2.0398   3.8585   5.0063

          k =-0.0834 0.2501 0.4168 (   771 PWs)   bands (ev):

    -4.8184   2.0344   3.8527   5.0208

          k =-0.4168 0.0834 0.2501 (   771 PWs)   bands (ev):

    -4.8191   2.0417   3.8547   5.0082

          k = 0.7502 0.0834 0.0834 (   769 PWs)   bands (ev):

    -3.4428   0.2089   3.1379   3.4739

          k =-0.0834 0.7502-0.0834 (   769 PWs)   bands (ev):

    -3.4443   0.2150   3.1315   3.4743

          k =-0.0834-0.7502 0.9170 (   758 PWs)   bands (ev):

    -2.2687  -1.1097   2.3158   3.0707

          k = 0.0834 0.7502 0.9170 (   758 PWs)   bands (ev):

    -2.2645  -1.1155   2.3117   3.0762

          k =-0.9170-0.0834 0.7502 (   758 PWs)   bands (ev):

    -2.2708  -1.1065   2.3167   3.0682

          k = 0.0834-0.5835 0.7502 (   759 PWs)   bands (ev):

    -2.6409  -0.7657   1.8387   3.6041

          k =-0.0834 0.5835 0.7502 (   759 PWs)   bands (ev):

    -2.6367  -0.7720   1.8318   3.6136

          k =-0.7502 0.0834 0.5835 (   759 PWs)   bands (ev):

    -2.6404  -0.7662   1.8366   3.6066

          k = 0.2501-0.4168 0.5835 (   768 PWs)   bands (ev):

    -3.6510  -0.3015   3.4623   4.4446

          k =-0.2501 0.4168 0.5835 (   768 PWs)   bands (ev):

    -3.6502  -0.3029   3.4507   4.4593

          k =-0.5835 0.2501 0.4168 (   768 PWs)   bands (ev):

    -3.6511  -0.3005   3.4530   4.4539

          k =-0.9170 0.0834 0.0834 (   765 PWs)   bands (ev):

    -2.3575  -1.1155   2.8686   3.2615

          k =-0.0834-0.9170-0.0834 (   765 PWs)   bands (ev):

    -2.3552  -1.1192   2.8707   3.2614

          k =-0.7502 0.2501-0.0834 (   766 PWs)   bands (ev):

    -3.2800  -0.0035   2.6306   3.4015

          k = 0.7502-0.2501-0.0834 (   766 PWs)   bands (ev):

    -3.2801  -0.0016   2.6200   3.4102

          k = 0.0834-0.7502-0.2501 (   766 PWs)   bands (ev):

    -3.2785  -0.0079   2.6271   3.4095

          k =-0.5835 0.0834 0.0834 (   771 PWs)   bands (ev):

    -4.3468   1.5674   3.6634   3.8914

          k =-0.0834-0.5835-0.0834 (   771 PWs)   bands (ev):

    -4.3459   1.5574   3.6754   3.8908

          k = 0.2501 0.2501 0.2501 (   778 PWs)   bands (ev):

    -5.0511   2.0808   5.2385   5.2385

          k = 0.4168 0.4168 0.0834 (   775 PWs)   bands (ev):

    -4.3827   1.1490   3.1383   5.0712

          k =-0.4168-0.4168 0.0834 (   775 PWs)   bands (ev):

    -4.3837   1.1568   3.1310   5.0728

          k =-0.4168-0.4168 0.9170 (   769 PWs)   bands (ev):

    -3.2257  -0.2704   2.0435   4.2975

          k = 0.4168 0.4168 0.9170 (   769 PWs)   bands (ev):

    -3.2229  -0.2793   2.0503   4.2966

          k =-0.2501-0.2501 0.7502 (   768 PWs)   bands (ev):

    -3.1759  -0.3420   2.5069   3.8229

          k = 0.2501 0.2501 0.7502 (   768 PWs)   bands (ev):

    -3.1702  -0.3587   2.5198   3.8216

          k = 0.5835 0.2501 0.2501 (   773 PWs)   bands (ev):

    -3.9650   0.3538   3.5897   4.1893

          k =-0.2501 0.5835-0.2501 (   773 PWs)   bands (ev):

    -3.9687   0.3699   3.5741   4.1915

          k =-0.2501-0.5835 1.0837 (   761 PWs)   bands (ev):

    -2.9792  -0.3962   2.1492   3.4115

          k = 0.2501 0.5835 1.0837 (   761 PWs)   bands (ev):

    -2.9821  -0.3883   2.1444   3.4115

          k =-1.0837-0.2501 0.5835 (   761 PWs)   bands (ev):

    -2.9849  -0.3812   2.1443   3.4065

          k =-0.0834-0.4168 0.9170 (   757 PWs)   bands (ev):

    -2.1673  -1.1154   1.9867   2.7549

          k = 0.0834 0.4168 0.9170 (   757 PWs)   bands (ev):

    -2.1600  -1.1264   1.9894   2.7562

          k =-0.9170-0.0834 0.4168 (   757 PWs)   bands (ev):

    -2.1703  -1.1117   1.9941   2.7467

          k =-1.0837 0.2501 0.2501 (   760 PWs)   bands (ev):

    -2.3675  -1.0304   1.8660   3.6301

          k =-0.2501-1.0837-0.2501 (   760 PWs)   bands (ev):

    -2.3738  -1.0194   1.8606   3.6305

          k = 0.4168 0.4168 0.4168 (   769 PWs)   bands (ev):

    -3.8783  -0.4111   4.8526   4.8526

          k =-0.4168-0.4168 1.2504 (   768 PWs)   bands (ev):

    -3.2835  -0.7158   3.0423   4.4206

          k = 0.4168 0.4168 1.2504 (   768 PWs)   bands (ev):

    -3.2908  -0.6984   3.0307   4.4232

     highest occupied level (ev):     5.8486

!    total energy              =     -93.45337152 Ry
     total all-electron energy =     -1160.145101 Ry
     estimated scf accuracy    <          4.3E-11 Ry

     The total energy is the sum of the following terms:
     one-electron contribution =       5.57007782 Ry
     hartree contribution      =       1.11936149 Ry
     xc contribution           =     -12.28240411 Ry
     ewald contribution        =     -16.67710849 Ry
     one-center paw contrib.   =     -71.18329823 Ry

     convergence has been achieved in   5 iterations


     Computing stress (Cartesian axis) and pressure

          total   stress  (Ry/bohr**3)                   (kbar)     P=       -0.01
  -0.00000007   0.00000450   0.00000450           -0.01        0.66        0.66
   0.00000450  -0.00000007   0.00000450            0.66       -0.01        0.66
   0.00000450   0.00000450  -0.00000007            0.66        0.66       -0.01

     Energy error            =      3.1E-08 Ry
     Gradient error          =      0.0E+00 Ry/Bohr
     Cell gradient error     =      6.6E-01 kbar

     number of scf cycles    =   4
     number of bfgs steps    =   2

     enthalpy           old  =     -93.4533714857 Ry
     enthalpy           new  =     -93.4533715167 Ry

     CASE: enthalpy          _new < enthalpy          _old

     new trust radius        =       0.0005285062 bohr
ibrav =      2
 celldm(1) =     10.33495245
Input lattice vectors:
    -0.49978009    -0.00000000     0.49978009
     0.00011236     0.49989244     0.49989244
    -0.49978009     0.49978009     0.00000000
New lattice vectors in INITIAL alat:
    -0.49978009     0.00000000     0.49978009
     0.00000000     0.49978009     0.49978009
    -0.49978009     0.49978009     0.00000000
New lattice vectors in NEW alat (for information only):
    -0.50000000     0.00000000     0.50000000
     0.00000000     0.50000000     0.50000000
    -0.50000000     0.50000000     0.00000000
Discrepancy in bohr =     0.000000    0.000195    0.000000

Atomic positions rescaled with new alat:
Si            0.0000000000        0.0000000000        0.0000000000    0   0   0
Si            0.2496598657        0.2496598657        0.2496598657    0   0   0
     new conv_thr            =            1.0E-10 Ry

     new unit-cell volume =    275.97228 a.u.^3 (    40.89487 Ang^3 )
     density =      2.28083 g/cm^3

CELL_PARAMETERS (alat= 10.33950000)
  -0.499780088   0.000000000   0.499780088
   0.000000000   0.499780088   0.499780088
  -0.499780088   0.499780088   0.000000000

ATOMIC_POSITIONS (alat)
Si            0.0000000000        0.0000000000        0.0000000000    0   0   0
Si            0.2495500595        0.2495500595        0.2495500595    0   0   0



     Writing config-only to output data dir ./tmp/silicon.save/
     NEW-OLD atomic charge density approx. for the potential

     Check: negative core charge=   -0.000003
     extrapolated charge    7.99717, renormalised to    8.00000

     total cpu time spent up to now is        5.1 secs

     Self-consistent Calculation

     iteration #  1     ecut=    30.00 Ry     beta= 0.70
     Davidson diagonalization with overlap
     ethr =  1.00E-06,  avg # of iterations =  2.0

     Threshold (ethr) on eigenvalues was too large:
     Diagonalizing with lowered threshold

     Davidson diagonalization with overlap
     ethr =  6.23E-10,  avg # of iterations =  2.7

     total cpu time spent up to now is        5.4 secs

     total energy              =     -93.45337133 Ry
     estimated scf accuracy    <       0.00000005 Ry

     iteration #  2     ecut=    30.00 Ry     beta= 0.70
     Davidson diagonalization with overlap
     ethr =  5.86E-10,  avg # of iterations =  3.2

     total cpu time spent up to now is        5.6 secs

     total energy              =     -93.45337142 Ry
     estimated scf accuracy    <       0.00000004 Ry

     iteration #  3     ecut=    30.00 Ry     beta= 0.70
     Davidson diagonalization with overlap
     ethr =  4.41E-10,  avg # of iterations =  1.0

     total cpu time spent up to now is        5.8 secs

     total energy              =     -93.45337141 Ry
     estimated scf accuracy    <       0.00000001 Ry

     iteration #  4     ecut=    30.00 Ry     beta= 0.70
     Davidson diagonalization with overlap
     ethr =  1.42E-10,  avg # of iterations =  2.0

     total cpu time spent up to now is        6.0 secs

     total energy              =     -93.45337142 Ry
     estimated scf accuracy    <          1.6E-09 Ry

     iteration #  5     ecut=    30.00 Ry     beta= 0.70
     Davidson diagonalization with overlap
     ethr =  2.00E-11,  avg # of iterations =  1.3

     total cpu time spent up to now is        6.2 secs

     End of self-consistent calculation

          k =-0.0834 0.0834 0.0834 (   752 PWs)   bands (ev):

    -5.7458   5.1286   5.8298   5.8521

          k =-0.2501 0.2501-0.0834 (   772 PWs)   bands (ev):

    -5.2767   3.0620   4.6260   5.6266

          k =-0.4169 0.4169-0.2501 (   768 PWs)   bands (ev):

    -4.2037   0.3364   4.1648   4.9995

          k = 0.4169-0.4169 0.5836 (   771 PWs)   bands (ev):

    -3.5218  -0.7867   4.2284   4.6259

          k = 0.2501-0.2501 0.4169 (   774 PWs)   bands (ev):

    -4.6074   1.1690   4.6854   4.7228

          k = 0.0834-0.0834 0.2501 (   775 PWs)   bands (ev):

    -5.5088   4.0592   5.2020   5.3904

          k =-0.0834 0.4169 0.0834 (   775 PWs)   bands (ev):

    -5.0389   2.8606   4.4718   4.4855

          k =-0.2501 0.5836-0.0834 (   770 PWs)   bands (ev):

    -4.1438   1.0466   3.1684   4.1045

          k = 0.5836-0.2501 0.7503 (   763 PWs)   bands (ev):

    -3.0509  -0.6721   2.5685   3.8879

          k = 0.4169-0.0834 0.5836 (   769 PWs)   bands (ev):

    -3.7552   0.3581   2.5366   4.3670

          k = 0.2501 0.0834 0.4169 (   771 PWs)   bands (ev):

    -4.8163   2.0297   3.8636   5.0228

          k =-0.0834 0.7503 0.0834 (   769 PWs)   bands (ev):

    -3.4418   0.2155   3.1441   3.4700

          k = 0.7503-0.0834 0.9171 (   758 PWs)   bands (ev):

    -2.2671  -1.1049   2.3106   3.0788

          k = 0.5836 0.0834 0.7503 (   759 PWs)   bands (ev):

    -2.6296  -0.7798   1.8399   3.6159

          k = 0.4169 0.2501 0.5836 (   768 PWs)   bands (ev):

    -3.6433  -0.3152   3.4637   4.4606

          k =-0.0834-0.9171 0.0834 (   765 PWs)   bands (ev):

    -2.3549  -1.1137   2.8787   3.2576

          k =-0.2501-0.7503-0.0834 (   766 PWs)   bands (ev):

    -3.2748  -0.0104   2.6306   3.4144

          k =-0.0834-0.5836 0.0834 (   771 PWs)   bands (ev):

    -4.3448   1.5664   3.6795   3.8865

          k =-0.2501 0.2501 0.2501 (   778 PWs)   bands (ev):

    -5.0509   2.0965   5.2262   5.2455

          k =-0.4169 0.4169 0.0834 (   775 PWs)   bands (ev):

    -4.3833   1.1666   3.1373   5.0631

          k = 0.4169-0.4169 0.9171 (   769 PWs)   bands (ev):

    -3.2267  -0.2607   2.0504   4.2909

          k = 0.2501-0.2501 0.7503 (   768 PWs)   bands (ev):

    -3.1735  -0.3423   2.5209   3.8174

          k =-0.2501 0.5836 0.2501 (   773 PWs)   bands (ev):

    -3.9663   0.3693   3.5905   4.1849

          k = 0.5836-0.2501 1.0838 (   761 PWs)   bands (ev):

    -2.9830  -0.3791   2.1526   3.4035

          k = 0.4169-0.0834 0.9171 (   757 PWs)   bands (ev):

    -2.1643  -1.1139   1.9923   2.7547

          k =-0.2501-1.0838 0.2501 (   760 PWs)   bands (ev):

    -2.3747  -1.0131   1.8702   3.6258

          k =-0.4169 0.4169 0.4169 (   769 PWs)   bands (ev):

    -3.8821  -0.3933   4.8421   4.8610

          k = 0.4169-0.4169 1.2506 (   768 PWs)   bands (ev):

    -3.2897  -0.6949   3.0429   4.4153

          k = 0.0834 0.0834 0.0834 (   752 PWs)   bands (ev):

    -5.7457   5.1109   5.8512   5.8512

          k = 0.2501 0.2501-0.0834 (   772 PWs)   bands (ev):

    -5.2763   3.0565   4.6201   5.6428

          k =-0.2501-0.2501-0.0834 (   772 PWs)   bands (ev):

    -5.2759   3.0472   4.6302   5.6409

          k = 0.4169 0.4169-0.2501 (   768 PWs)   bands (ev):

    -4.2032   0.3347   4.1549   5.0137

          k =-0.4169-0.4169-0.2501 (   768 PWs)   bands (ev):

    -4.2000   0.3220   4.1665   5.0096

          k =-0.4169-0.4169 0.5836 (   771 PWs)   bands (ev):

    -3.5218  -0.7863   4.2162   4.6385

          k = 0.4169 0.4169 0.5836 (   771 PWs)   bands (ev):

    -3.5137  -0.8046   4.2293   4.6342

          k =-0.2501-0.2501 0.4169 (   774 PWs)   bands (ev):

    -4.6077   1.1711   4.6987   4.7065

          k = 0.2501 0.2501 0.4169 (   774 PWs)   bands (ev):

    -4.6055   1.1568   4.6954   4.7230

          k =-0.0834-0.0834 0.2501 (   775 PWs)   bands (ev):

    -5.5089   4.0642   5.2145   5.3709

          k = 0.0834 0.0834 0.2501 (   775 PWs)   bands (ev):

    -5.5086   4.0469   5.2132   5.3932

          k = 0.4169 0.0834 0.0834 (   775 PWs)   bands (ev):

    -5.0385   2.8519   4.4745   4.4925

          k =-0.0834 0.4169-0.0834 (   775 PWs)   bands (ev):

    -5.0391   2.8663   4.4565   4.4935

          k = 0.5836 0.2501-0.0834 (   770 PWs)   bands (ev):

    -4.1427   1.0388   3.1712   4.1110

          k =-0.5836-0.2501-0.0834 (   770 PWs)   bands (ev):

    -4.1417   1.0321   3.1768   4.1107

          k = 0.0834 0.5836-0.2501 (   770 PWs)   bands (ev):

    -4.1436   1.0440   3.1767   4.0987

          k =-0.2501-0.5836 0.7503 (   763 PWs)   bands (ev):

    -3.0507  -0.6733   2.5733   3.8844

          k = 0.2501 0.5836 0.7503 (   763 PWs)   bands (ev):

    -3.0429  -0.6906   2.5796   3.8873

          k =-0.7503-0.2501 0.5836 (   763 PWs)   bands (ev):

    -3.0516  -0.6722   2.5804   3.8758

          k =-0.0834-0.4169 0.5836 (   769 PWs)   bands (ev):

    -3.7573   0.3656   2.5385   4.3574

          k = 0.0834 0.4169 0.5836 (   769 PWs)   bands (ev):

    -3.7536   0.3503   2.5432   4.3659

          k =-0.5836-0.0834 0.4169 (   769 PWs)   bands (ev):

    -3.7572   0.3647   2.5416   4.3549

          k = 0.0834-0.2501 0.4169 (   771 PWs)   bands (ev):

    -4.8175   2.0430   3.8614   5.0096

          k =-0.0834 0.2501 0.4169 (   771 PWs)   bands (ev):

    -4.8169   2.0376   3.8556   5.0241

          k =-0.4169 0.0834 0.2501 (   771 PWs)   bands (ev):

    -4.8176   2.0449   3.8575   5.0115

          k = 0.7503 0.0834 0.0834 (   769 PWs)   bands (ev):

    -3.4408   0.2119   3.1405   3.4766

          k =-0.0834 0.7503-0.0834 (   769 PWs)   bands (ev):

    -3.4423   0.2181   3.1340   3.4770

          k =-0.0834-0.7503 0.9171 (   758 PWs)   bands (ev):

    -2.2663  -1.1070   2.3180   3.0733

          k = 0.0834 0.7503 0.9171 (   758 PWs)   bands (ev):

    -2.2621  -1.1128   2.3139   3.0788

          k =-0.9171-0.0834 0.7503 (   758 PWs)   bands (ev):

    -2.2684  -1.1038   2.3190   3.0708

          k = 0.0834-0.5836 0.7503 (   759 PWs)   bands (ev):

    -2.6386  -0.7631   1.8408   3.6068

          k =-0.0834 0.5836 0.7503 (   759 PWs)   bands (ev):

    -2.6344  -0.7694   1.8339   3.6164

          k =-0.7503 0.0834 0.5836 (   759 PWs)   bands (ev):

    -2.6381  -0.7635   1.8387   3.6094

          k = 0.2501-0.4169 0.5836 (   768 PWs)   bands (ev):

    -3.6491  -0.2992   3.4652   4.4477

          k =-0.2501 0.4169 0.5836 (   768 PWs)   bands (ev):

    -3.6483  -0.3006   3.4536   4.4624

          k =-0.5836 0.2501 0.4169 (   768 PWs)   bands (ev):

    -3.6492  -0.2982   3.4560   4.4570

          k =-0.9171 0.0834 0.0834 (   765 PWs)   bands (ev):

    -2.3552  -1.1128   2.8711   3.2642

          k =-0.0834-0.9171-0.0834 (   765 PWs)   bands (ev):

    -2.3529  -1.1165   2.8732   3.2641

          k =-0.7503 0.2501-0.0834 (   766 PWs)   bands (ev):

    -3.2779  -0.0005   2.6330   3.4042

          k = 0.7503-0.2501-0.0834 (   766 PWs)   bands (ev):

    -3.2781   0.0014   2.6224   3.4129

          k = 0.0834-0.7503-0.2501 (   766 PWs)   bands (ev):

    -3.2765  -0.0049   2.6295   3.4121

          k =-0.5836 0.0834 0.0834 (   771 PWs)   bands (ev):

    -4.3452   1.5708   3.6662   3.8943

          k =-0.0834-0.5836-0.0834 (   771 PWs)   bands (ev):

    -4.3442   1.5608   3.6782   3.8936

          k = 0.2501 0.2501 0.2501 (   778 PWs)   bands (ev):

    -5.0497   2.0838   5.2419   5.2419

          k = 0.4169 0.4169 0.0834 (   775 PWs)   bands (ev):

    -4.3810   1.1520   3.1410   5.0746

          k =-0.4169-0.4169 0.0834 (   775 PWs)   bands (ev):

    -4.3820   1.1598   3.1336   5.0762

          k =-0.4169-0.4169 0.9171 (   769 PWs)   bands (ev):

    -3.2236  -0.2677   2.0457   4.3005

          k = 0.4169 0.4169 0.9171 (   769 PWs)   bands (ev):

    -3.2208  -0.2767   2.0525   4.2997

          k =-0.2501-0.2501 0.7503 (   768 PWs)   bands (ev):

    -3.1738  -0.3394   2.5093   3.8258

          k = 0.2501 0.2501 0.7503 (   768 PWs)   bands (ev):

    -3.1681  -0.3560   2.5222   3.8245

          k = 0.5836 0.2501 0.2501 (   773 PWs)   bands (ev):

    -3.9631   0.3565   3.5927   4.1923

          k =-0.2501 0.5836-0.2501 (   773 PWs)   bands (ev):

    -3.9668   0.3726   3.5771   4.1945

          k =-0.2501-0.5836 1.0838 (   761 PWs)   bands (ev):

    -2.9771  -0.3934   2.1515   3.4142

          k = 0.2501 0.5836 1.0838 (   761 PWs)   bands (ev):

    -2.9800  -0.3855   2.1467   3.4141

          k =-1.0838-0.2501 0.5836 (   761 PWs)   bands (ev):

    -2.9827  -0.3785   2.1465   3.4091

          k =-0.0834-0.4169 0.9171 (   757 PWs)   bands (ev):

    -2.1648  -1.1127   1.9888   2.7572

          k = 0.0834 0.4169 0.9171 (   757 PWs)   bands (ev):

    -2.1576  -1.1237   1.9914   2.7585

          k =-0.9171-0.0834 0.4169 (   757 PWs)   bands (ev):

    -2.1679  -1.1090   1.9962   2.7490

          k =-1.0838 0.2501 0.2501 (   760 PWs)   bands (ev):

    -2.3651  -1.0278   1.8680   3.6329

          k =-0.2501-1.0838-0.2501 (   760 PWs)   bands (ev):

    -2.3714  -1.0167   1.8626   3.6333

          k = 0.4169 0.4169 0.4169 (   769 PWs)   bands (ev):

    -3.8764  -0.4089   4.8559   4.8559

          k =-0.4169-0.4169 1.2506 (   768 PWs)   bands (ev):

    -3.2813  -0.7135   3.0451   4.4237

          k = 0.4169 0.4169 1.2506 (   768 PWs)   bands (ev):

    -3.2887  -0.6961   3.0335   4.4263

     highest occupied level (ev):     5.8521

!    total energy              =     -93.45337142 Ry
     total all-electron energy =     -1160.145101 Ry
     estimated scf accuracy    <          7.7E-11 Ry

     The total energy is the sum of the following terms:
[...]

          k = 0.4168 0.4168 0.9171 (   769 PWs)   bands (ev):

    -3.2209  -0.2767   2.0524   4.2996

          k =-0.2501-0.2501 0.7503 (   768 PWs)   bands (ev):

    -3.1739  -0.3394   2.5093   3.8257

          k = 0.2501 0.2501 0.7503 (   768 PWs)   bands (ev):

    -3.1682  -0.3561   2.5222   3.8244

          k = 0.5836 0.2501 0.2501 (   773 PWs)   bands (ev):

    -3.9632   0.3564   3.5926   4.1922

          k =-0.2501 0.5836-0.2501 (   773 PWs)   bands (ev):

    -3.9669   0.3725   3.5770   4.1944

          k =-0.2501-0.5836 1.0838 (   761 PWs)   bands (ev):

    -2.9771  -0.3935   2.1514   3.4141

          k = 0.2501 0.5836 1.0838 (   761 PWs)   bands (ev):

    -2.9800  -0.3856   2.1466   3.4141

          k =-1.0838-0.2501 0.5836 (   761 PWs)   bands (ev):

    -2.9828  -0.3785   2.1464   3.4090

          k =-0.0834-0.4168 0.9171 (   757 PWs)   bands (ev):

    -2.1649  -1.1128   1.9887   2.7572

          k = 0.0834 0.4168 0.9171 (   757 PWs)   bands (ev):

    -2.1576  -1.1237   1.9914   2.7585

          k =-0.9171-0.0834 0.4168 (   757 PWs)   bands (ev):

    -2.1680  -1.1091   1.9961   2.7490

          k =-1.0838 0.2501 0.2501 (   760 PWs)   bands (ev):

    -2.3652  -1.0279   1.8680   3.6328

          k =-0.2501-1.0838-0.2501 (   760 PWs)   bands (ev):

    -2.3714  -1.0168   1.8625   3.6332

          k = 0.4168 0.4168 0.4168 (   769 PWs)   bands (ev):

    -3.8765  -0.4090   4.8558   4.8558

          k =-0.4168-0.4168 1.2505 (   768 PWs)   bands (ev):

    -3.2814  -0.7136   3.0450   4.4236

          k = 0.4168 0.4168 1.2505 (   768 PWs)   bands (ev):

    -3.2888  -0.6962   3.0334   4.4262

     highest occupied level (ev):     5.8520

!    total energy              =     -93.45337142 Ry
     total all-electron energy =     -1160.145101 Ry
     estimated scf accuracy    <          2.8E-11 Ry

     The total energy is the sum of the following terms:
     one-electron contribution =       5.57274989 Ry
     hartree contribution      =       1.11906176 Ry
     xc contribution           =     -12.28281805 Ry
     ewald contribution        =     -16.67901141 Ry
     one-center paw contrib.   =     -71.18335362 Ry

     convergence has been achieved in   2 iterations


     Computing stress (Cartesian axis) and pressure

          total   stress  (Ry/bohr**3)                   (kbar)     P=        0.30
   0.00000202   0.00000451   0.00000451            0.30        0.66        0.66
   0.00000451   0.00000202   0.00000451            0.66        0.30        0.66
   0.00000451   0.00000451   0.00000202            0.66        0.66        0.30

     Energy error            =      9.4E-08 Ry
     Gradient error          =      0.0E+00 Ry/Bohr
     Cell gradient error     =      6.6E-01 kbar

     number of scf cycles    =   6
     number of bfgs steps    =   3

     enthalpy           old  =     -93.4533715167 Ry
     enthalpy           new  =     -93.4533714231 Ry

     CASE: enthalpy          _new > enthalpy          _old

     new trust radius        =       0.0000118865 bohr

     trust_radius < trust_radius_min

     resetting bfgs history

     Message from routine bfgs:
     history already reset at previous step: stopping
ibrav =      2
 celldm(1) =     10.33499170
Input lattice vectors:
    -0.49978199    -0.00000000     0.49978199
     0.00011240     0.49989438     0.49989438
    -0.49978199     0.49978199     0.00000000
New lattice vectors in INITIAL alat:
    -0.49978199     0.00000000     0.49978199
     0.00000000     0.49978199     0.49978199
    -0.49978199     0.49978199     0.00000000
New lattice vectors in NEW alat (for information only):
    -0.50000000     0.00000000     0.50000000
     0.00000000     0.50000000     0.50000000
    -0.50000000     0.50000000     0.00000000
Discrepancy in bohr =     0.000000    0.000195    0.000000

Atomic positions rescaled with new alat:
Si            0.0000000000        0.0000000000        0.0000000000    0   0   0
Si            0.2496598657        0.2496598657        0.2496598657    0   0   0
     new conv_thr            =            1.0E-10 Ry

     new unit-cell volume =    275.97542 a.u.^3 (    40.89534 Ang^3 )
     density =      2.28080 g/cm^3

CELL_PARAMETERS (alat= 10.33950000)
  -0.499781986   0.000000000   0.499781986
   0.000000000   0.499781986   0.499781986
  -0.499781986   0.499781986   0.000000000

ATOMIC_POSITIONS (alat)
Si            0.0000000000        0.0000000000        0.0000000000    0   0   0
Si            0.2495510073        0.2495510073        0.2495510073    0   0   0



     Writing config-only to output data dir ./tmp/silicon.save/
     NEW-OLD atomic charge density approx. for the potential

     Check: negative core charge=   -0.000003

     total cpu time spent up to now is        7.1 secs

     Self-consistent Calculation

     iteration #  1     ecut=    30.00 Ry     beta= 0.70
     Davidson diagonalization with overlap
     ethr =  1.00E-06,  avg # of iterations =  1.0

     Threshold (ethr) on eigenvalues was too large:
     Diagonalizing with lowered threshold

     Davidson diagonalization with overlap
     ethr =  9.77E-15,  avg # of iterations =  4.6

     total cpu time spent up to now is        7.4 secs

     End of self-consistent calculation

          k =-0.0834 0.0834 0.0834 (   752 PWs)   bands (ev):

    -5.7458   5.1285   5.8297   5.8520

          k =-0.2501 0.2501-0.0834 (   772 PWs)   bands (ev):

    -5.2767   3.0619   4.6259   5.6265

          k =-0.4168 0.4168-0.2501 (   768 PWs)   bands (ev):

    -4.2037   0.3363   4.1647   4.9994

          k = 0.4168-0.4168 0.5836 (   771 PWs)   bands (ev):

    -3.5218  -0.7867   4.2283   4.6258

          k = 0.2501-0.2501 0.4168 (   774 PWs)   bands (ev):

    -4.6074   1.1690   4.6854   4.7227

          k = 0.0834-0.0834 0.2501 (   775 PWs)   bands (ev):

    -5.5088   4.0591   5.2019   5.3903

          k =-0.0834 0.4168 0.0834 (   775 PWs)   bands (ev):

    -5.0389   2.8605   4.4717   4.4854

          k =-0.2501 0.5836-0.0834 (   770 PWs)   bands (ev):

    -4.1439   1.0465   3.1683   4.1044

          k = 0.5836-0.2501 0.7503 (   763 PWs)   bands (ev):

    -3.0509  -0.6721   2.5684   3.8878

          k = 0.4168-0.0834 0.5836 (   769 PWs)   bands (ev):

    -3.7552   0.3580   2.5365   4.3669

          k = 0.2501 0.0834 0.4168 (   771 PWs)   bands (ev):

    -4.8163   2.0296   3.8635   5.0227

          k =-0.0834 0.7503 0.0834 (   769 PWs)   bands (ev):

    -3.4418   0.2154   3.1441   3.4700

          k = 0.7503-0.0834 0.9171 (   758 PWs)   bands (ev):

    -2.2672  -1.1050   2.3105   3.0787

          k = 0.5836 0.0834 0.7503 (   759 PWs)   bands (ev):

    -2.6296  -0.7798   1.8398   3.6158

          k = 0.4168 0.2501 0.5836 (   768 PWs)   bands (ev):

    -3.6433  -0.3152   3.4636   4.4605

          k =-0.0834-0.9171 0.0834 (   765 PWs)   bands (ev):

    -2.3549  -1.1137   2.8787   3.2576

          k =-0.2501-0.7503-0.0834 (   766 PWs)   bands (ev):

    -3.2748  -0.0105   2.6306   3.4144

          k =-0.0834-0.5836 0.0834 (   771 PWs)   bands (ev):

    -4.3448   1.5663   3.6794   3.8864

          k =-0.2501 0.2501 0.2501 (   778 PWs)   bands (ev):

    -5.0509   2.0964   5.2261   5.2454

          k =-0.4168 0.4168 0.0834 (   775 PWs)   bands (ev):

    -4.3833   1.1665   3.1372   5.0630

          k = 0.4168-0.4168 0.9171 (   769 PWs)   bands (ev):

    -3.2268  -0.2608   2.0503   4.2908

          k = 0.2501-0.2501 0.7503 (   768 PWs)   bands (ev):

    -3.1735  -0.3424   2.5209   3.8174

          k =-0.2501 0.5836 0.2501 (   773 PWs)   bands (ev):

    -3.9663   0.3692   3.5904   4.1848

          k = 0.5836-0.2501 1.0838 (   761 PWs)   bands (ev):

    -2.9830  -0.3792   2.1526   3.4034

          k = 0.4168-0.0834 0.9171 (   757 PWs)   bands (ev):

    -2.1644  -1.1140   1.9923   2.7546

          k =-0.2501-1.0838 0.2501 (   760 PWs)   bands (ev):

    -2.3748  -1.0131   1.8702   3.6258

          k =-0.4168 0.4168 0.4168 (   769 PWs)   bands (ev):

    -3.8822  -0.3934   4.8420   4.8609

          k = 0.4168-0.4168 1.2505 (   768 PWs)   bands (ev):

    -3.2898  -0.6949   3.0428   4.4152

          k = 0.0834 0.0834 0.0834 (   752 PWs)   bands (ev):

    -5.7457   5.1108   5.8512   5.8512

          k = 0.2501 0.2501-0.0834 (   772 PWs)   bands (ev):

    -5.2764   3.0564   4.6200   5.6427

          k =-0.2501-0.2501-0.0834 (   772 PWs)   bands (ev):

    -5.2760   3.0471   4.6301   5.6408

          k = 0.4168 0.4168-0.2501 (   768 PWs)   bands (ev):

    -4.2032   0.3346   4.1548   5.0136

          k =-0.4168-0.4168-0.2501 (   768 PWs)   bands (ev):

    -4.2001   0.3219   4.1664   5.0095

          k =-0.4168-0.4168 0.5836 (   771 PWs)   bands (ev):

    -3.5219  -0.7863   4.2162   4.6384

          k = 0.4168 0.4168 0.5836 (   771 PWs)   bands (ev):

    -3.5137  -0.8046   4.2293   4.6341

          k =-0.2501-0.2501 0.4168 (   774 PWs)   bands (ev):

    -4.6077   1.1710   4.6986   4.7064

          k = 0.2501 0.2501 0.4168 (   774 PWs)   bands (ev):

    -4.6055   1.1567   4.6954   4.7229

          k =-0.0834-0.0834 0.2501 (   775 PWs)   bands (ev):

    -5.5089   4.0641   5.2144   5.3708

          k = 0.0834 0.0834 0.2501 (   775 PWs)   bands (ev):

    -5.5086   4.0468   5.2132   5.3931

          k = 0.4168 0.0834 0.0834 (   775 PWs)   bands (ev):

    -5.0385   2.8518   4.4744   4.4924

          k =-0.0834 0.4168-0.0834 (   775 PWs)   bands (ev):

    -5.0391   2.8662   4.4564   4.4934

          k = 0.5836 0.2501-0.0834 (   770 PWs)   bands (ev):

    -4.1427   1.0387   3.1712   4.1109

          k =-0.5836-0.2501-0.0834 (   770 PWs)   bands (ev):

    -4.1417   1.0320   3.1768   4.1106

          k = 0.0834 0.5836-0.2501 (   770 PWs)   bands (ev):

    -4.1437   1.0439   3.1767   4.0986

          k =-0.2501-0.5836 0.7503 (   763 PWs)   bands (ev):

    -3.0507  -0.6733   2.5733   3.8844

          k = 0.2501 0.5836 0.7503 (   763 PWs)   bands (ev):

    -3.0430  -0.6907   2.5795   3.8872

          k =-0.7503-0.2501 0.5836 (   763 PWs)   bands (ev):

    -3.0517  -0.6722   2.5804   3.8757

          k =-0.0834-0.4168 0.5836 (   769 PWs)   bands (ev):

    -3.7573   0.3656   2.5384   4.3574

          k = 0.0834 0.4168 0.5836 (   769 PWs)   bands (ev):

    -3.7536   0.3502   2.5432   4.3658

          k =-0.5836-0.0834 0.4168 (   769 PWs)   bands (ev):

    -3.7573   0.3646   2.5416   4.3548

          k = 0.0834-0.2501 0.4168 (   771 PWs)   bands (ev):

    -4.8175   2.0429   3.8613   5.0095

          k =-0.0834 0.2501 0.4168 (   771 PWs)   bands (ev):

    -4.8169   2.0375   3.8555   5.0240

          k =-0.4168 0.0834 0.2501 (   771 PWs)   bands (ev):

    -4.8176   2.0448   3.8575   5.0114

          k = 0.7503 0.0834 0.0834 (   769 PWs)   bands (ev):

    -3.4409   0.2119   3.1405   3.4766

          k =-0.0834 0.7503-0.0834 (   769 PWs)   bands (ev):

    -3.4424   0.2180   3.1340   3.4770

          k =-0.0834-0.7503 0.9171 (   758 PWs)   bands (ev):

    -2.2664  -1.1070   2.3179   3.0732

          k = 0.0834 0.7503 0.9171 (   758 PWs)   bands (ev):

    -2.2622  -1.1129   2.3138   3.0787

          k =-0.9171-0.0834 0.7503 (   758 PWs)   bands (ev):

    -2.2685  -1.1038   2.3189   3.0707

          k = 0.0834-0.5836 0.7503 (   759 PWs)   bands (ev):

    -2.6386  -0.7632   1.8407   3.6068

          k =-0.0834 0.5836 0.7503 (   759 PWs)   bands (ev):

    -2.6344  -0.7695   1.8338   3.6163

          k =-0.7503 0.0834 0.5836 (   759 PWs)   bands (ev):

    -2.6381  -0.7636   1.8386   3.6093

          k = 0.2501-0.4168 0.5836 (   768 PWs)   bands (ev):

    -3.6491  -0.2992   3.4651   4.4476

          k =-0.2501 0.4168 0.5836 (   768 PWs)   bands (ev):

    -3.6483  -0.3006   3.4535   4.4623

          k =-0.5836 0.2501 0.4168 (   768 PWs)   bands (ev):

    -3.6492  -0.2982   3.4559   4.4570

          k =-0.9171 0.0834 0.0834 (   765 PWs)   bands (ev):

    -2.3553  -1.1128   2.8711   3.2641

          k =-0.0834-0.9171-0.0834 (   765 PWs)   bands (ev):

    -2.3529  -1.1166   2.8731   3.2640

          k =-0.7503 0.2501-0.0834 (   766 PWs)   bands (ev):

    -3.2780  -0.0006   2.6329   3.4041

          k = 0.7503-0.2501-0.0834 (   766 PWs)   bands (ev):

    -3.2781   0.0013   2.6223   3.4128

          k = 0.0834-0.7503-0.2501 (   766 PWs)   bands (ev):

    -3.2765  -0.0050   2.6295   3.4121

          k =-0.5836 0.0834 0.0834 (   771 PWs)   bands (ev):

    -4.3452   1.5707   3.6662   3.8942

          k =-0.0834-0.5836-0.0834 (   771 PWs)   bands (ev):

    -4.3442   1.5607   3.6782   3.8936

          k = 0.2501 0.2501 0.2501 (   778 PWs)   bands (ev):

    -5.0497   2.0837   5.2418   5.2418

          k = 0.4168 0.4168 0.0834 (   775 PWs)   bands (ev):

    -4.3811   1.1519   3.1409   5.0745

          k =-0.4168-0.4168 0.0834 (   775 PWs)   bands (ev):

    -4.3820   1.1597   3.1336   5.0761

          k =-0.4168-0.4168 0.9171 (   769 PWs)   bands (ev):

    -3.2236  -0.2677   2.0457   4.3005

          k = 0.4168 0.4168 0.9171 (   769 PWs)   bands (ev):

    -3.2209  -0.2767   2.0524   4.2996

          k =-0.2501-0.2501 0.7503 (   768 PWs)   bands (ev):

    -3.1738  -0.3394   2.5093   3.8257

          k = 0.2501 0.2501 0.7503 (   768 PWs)   bands (ev):

    -3.1682  -0.3561   2.5222   3.8244

          k = 0.5836 0.2501 0.2501 (   773 PWs)   bands (ev):

    -3.9632   0.3564   3.5926   4.1922

          k =-0.2501 0.5836-0.2501 (   773 PWs)   bands (ev):

    -3.9669   0.3725   3.5770   4.1945

          k =-0.2501-0.5836 1.0838 (   761 PWs)   bands (ev):

    -2.9771  -0.3935   2.1514   3.4141

          k = 0.2501 0.5836 1.0838 (   761 PWs)   bands (ev):

    -2.9800  -0.3855   2.1466   3.4141

          k =-1.0838-0.2501 0.5836 (   761 PWs)   bands (ev):

    -2.9828  -0.3785   2.1464   3.4090

          k =-0.0834-0.4168 0.9171 (   757 PWs)   bands (ev):

    -2.1649  -1.1127   1.9887   2.7572

          k = 0.0834 0.4168 0.9171 (   757 PWs)   bands (ev):

    -2.1576  -1.1237   1.9914   2.7585

          k =-0.9171-0.0834 0.4168 (   757 PWs)   bands (ev):

    -2.1679  -1.1091   1.9961   2.7490

          k =-1.0838 0.2501 0.2501 (   760 PWs)   bands (ev):

    -2.3652  -1.0278   1.8680   3.6328

          k =-0.2501-1.0838-0.2501 (   760 PWs)   bands (ev):

    -2.3714  -1.0168   1.8626   3.6332

          k = 0.4168 0.4168 0.4168 (   769 PWs)   bands (ev):

    -3.8765  -0.4090   4.8558   4.8558

          k =-0.4168-0.4168 1.2505 (   768 PWs)   bands (ev):

    -3.2814  -0.7136   3.0450   4.4236

          k = 0.4168 0.4168 1.2505 (   768 PWs)   bands (ev):

    -3.2887  -0.6962   3.0334   4.4262

     highest occupied level (ev):     5.8520

!    total energy              =     -93.45337142 Ry
     total all-electron energy =     -1160.145101 Ry
     estimated scf accuracy    <          1.2E-12 Ry

     The total energy is the sum of the following terms:
     one-electron contribution =       5.57275004 Ry
     hartree contribution      =       1.11905960 Ry
     xc contribution           =     -12.28281685 Ry
     ewald contribution        =     -16.67901140 Ry
     one-center paw contrib.   =     -71.18335281 Ry

     convergence has been achieved in   1 iterations


     Computing stress (Cartesian axis) and pressure

          total   stress  (Ry/bohr**3)                   (kbar)     P=        0.30
   0.00000201   0.00000451   0.00000451            0.30        0.66        0.66
   0.00000451   0.00000201   0.00000451            0.66        0.30        0.66
   0.00000451   0.00000451   0.00000201            0.66        0.66        0.30

     Message from routine bfgs:
     history already reset at previous step: exiting
     Energy error            =      9.4E-08 Ry
     Gradient error          =      0.0E+00 Ry/Bohr
     Cell gradient error     =      6.6E-01 kbar
ibrav =      2
 celldm(1) =     10.33499170
Input lattice vectors:
    -0.49978199     0.00000000     0.49978199
     0.00000000     0.49978199     0.49978199
    -0.49978199     0.49978199     0.00000000
New lattice vectors in INITIAL alat:
    -0.49978199     0.00000000     0.49978199
     0.00000000     0.49978199     0.49978199
    -0.49978199     0.49978199     0.00000000
New lattice vectors in NEW alat (for information only):
    -0.50000000     0.00000000     0.50000000
     0.00000000     0.50000000     0.50000000
    -0.50000000     0.50000000     0.00000000
Discrepancy in bohr =     0.000000    0.000000    0.000000

Atomic positions rescaled with new alat:
Si            0.0000000000        0.0000000000        0.0000000000    0   0   0
Si            0.2496598657        0.2496598657        0.2496598657    0   0   0

     bfgs failed after   7 scf cycles and   3 bfgs steps, convergence not achieved
     (criteria: energy <  1.0E-05 Ry, force <  1.0E-04 Ry/Bohr, cell <  5.0E-01 kbar)

     End of BFGS Geometry Optimization

     Final enthalpy           =     -93.4533714230 Ry

     File ./tmp/silicon.bfgs deleted, as requested
Begin final coordinates
     new unit-cell volume =    275.97542 a.u.^3 (    40.89534 Ang^3 )
     density =      2.28080 g/cm^3

CELL_PARAMETERS (alat= 10.33950000)
  -0.499781986   0.000000000   0.499781986
   0.000000000   0.499781986   0.499781986
  -0.499781986   0.499781986   0.000000000

ATOMIC_POSITIONS (alat)
Si            0.0000000000        0.0000000000        0.0000000000    0   0   0
Si            0.2495510073        0.2495510073        0.2495510073    0   0   0
End final coordinates



     Writing config-only to output data dir ./tmp/silicon.save/

     Writing all to output data dir ./tmp/silicon.save/
 
     init_run     :      0.12s CPU      0.14s WALL (       1 calls)
     electrons    :      5.64s CPU      6.06s WALL (       7 calls)
     update_pot   :      0.41s CPU      0.45s WALL (       6 calls)
     stress       :      0.36s CPU      0.36s WALL (       7 calls)

     Called by init_run:
     wfcinit      :      0.03s CPU      0.04s WALL (       1 calls)
     potinit      :      0.05s CPU      0.06s WALL (       1 calls)
     hinit0       :      0.03s CPU      0.04s WALL (       1 calls)

     Called by electrons:
     c_bands      :      3.62s CPU      3.80s WALL (      36 calls)
     sum_band     :      0.51s CPU      0.53s WALL (      36 calls)
     v_of_rho     :      0.02s CPU      0.02s WALL (      36 calls)
     newd         :      0.07s CPU      0.09s WALL (      36 calls)
     PAW_pot      :      2.03s CPU      2.32s WALL (      42 calls)
     mix_rho      :      0.01s CPU      0.01s WALL (      36 calls)

     Called by c_bands:
     init_us_2    :      0.13s CPU      0.14s WALL (    7826 calls)
     init_us_2:cp :      0.12s CPU      0.13s WALL (    7826 calls)
     cegterg      :      2.11s CPU      2.22s WALL (    3276 calls)

     Called by *egterg:
     cdiaghg      :      0.18s CPU      0.19s WALL (    9837 calls)
     h_psi        :      1.56s CPU      1.64s WALL (   11111 calls)
     s_psi        :      0.06s CPU      0.06s WALL (   11111 calls)
     g_psi        :      0.01s CPU      0.01s WALL (    7744 calls)

     Called by h_psi:
     h_psi:calbec :      0.13s CPU      0.14s WALL (   11111 calls)
     vloc_psi     :      1.33s CPU      1.40s WALL (   11111 calls)
     add_vuspsi   :      0.07s CPU      0.07s WALL (   11111 calls)

     General routines
     calbec       :      0.17s CPU      0.18s WALL (   15570 calls)
     fft          :      0.02s CPU      0.02s WALL (     507 calls)
     ffts         :      0.00s CPU      0.00s WALL (      36 calls)
     fftw         :      1.41s CPU      1.48s WALL (   90100 calls)
     davcio       :      0.00s CPU      0.00s WALL (      91 calls)
 
     Parallel routines
 
     PWSCF        :      6.98s CPU      7.52s WALL

 
   This run was terminated on:  17:58:25  13Mar2026            

=------------------------------------------------------------------------------=
   JOB DONE.
=------------------------------------------------------------------------------=
