
     Program PWSCF v.7.1 starts on 13Mar2026 at 17:59:40 

     This program is part of the open-source Quantum ESPRESSO suite
     for quantum simulation of materials; please cite
         "P. Giannozzi et al., J. Phys.:Condens. Matter 21 395502 (2009);
         "P. Giannozzi et al., J. Phys.:Condens. Matter 29 465901 (2017);
         "P. Giannozzi et al., J. Chem. Phys. 152 154105 (2020);
          URL http://www.quantum-espresso.org", 
     in publications or presentations arising from this work. More details at
     http://www.quantum-espresso.org/quote

     Parallel version (MPI), running on     8 processors

     MPI processes distributed on     1 nodes
     11388 MiB available memory on the printing compute node when the environment starts
 
     Waiting for input...
     Reading input from standard input
Warning: card &CELL ignored
Warning: card     CELL_DOFREE='IBRAV' ignored
Warning: card / ignored

     Current dimensions of program PWSCF are:
     Max number of different atomic species (ntypx) = 10
     Max number of k-points (npk) =  40000
     Max angular momentum in pseudopotentials (lmaxx) =  4

     File ./tmp/silicon.update deleted, as requested
     file Si.pbe-n-kjpaw_psl.1.0.0.UPF: wavefunction(s)  3S 3P renormalized
 
     R & G space division:  proc/nbgrp/npool/nimage =       8
     Subspace diagonalization in iterative solution of the eigenvalue problem:
     a serial algorithm will be used

 
     Parallelization info
     --------------------
     sticks:   dense  smooth     PW     G-vecs:    dense   smooth      PW
     Min          54      54     18                  771      771     153
     Max          55      55     19                  775      775     156
     Sum         439     439    151                 6183     6183    1243
 
     Using Slab Decomposition
 


     bravais-lattice index     =            2
     lattice parameter (alat)  =      10.3500  a.u.
     unit-cell volume          =     277.1795 (a.u.)^3
     number of atoms/cell      =            2
     number of atomic types    =            1
     number of electrons       =         8.00
     number of Kohn-Sham states=            4
     kinetic-energy cutoff     =      30.0000  Ry
     charge density cutoff     =     120.0000  Ry
     scf convergence threshold =      1.0E-08
     mixing beta               =       0.7000
     number of iterations used =            8  plain     mixing
     energy convergence thresh.=      1.0E-05
     force convergence thresh. =      1.0E-04
     Exchange-correlation= SLA  PW   PBX  PBC
                           (   1   4   3   4   0   0   0)
     nstep                     =           50


     celldm(1)=  10.350000  celldm(2)=   0.000000  celldm(3)=   0.000000
     celldm(4)=   0.000000  celldm(5)=   0.000000  celldm(6)=   0.000000

     crystal axes: (cart. coord. in units of alat)
               a(1) = (  -0.500000   0.000000   0.500000 )  
               a(2) = (   0.000000   0.500000   0.500000 )  
               a(3) = (  -0.500000   0.500000   0.000000 )  

     reciprocal axes: (cart. coord. in units 2 pi/alat)
               b(1) = ( -1.000000 -1.000000  1.000000 )  
               b(2) = (  1.000000  1.000000  1.000000 )  
               b(3) = ( -1.000000  1.000000 -1.000000 )  


     PseudoPot. # 1 for Si read from file:
     /home/karan/pseudos/Si.pbe-n-kjpaw_psl.1.0.0.UPF
     MD5 check sum: c39c59da582df4a0d9f10159256ea34e
     Pseudo is Projector augmented-wave + core cor, Zval =  4.0
     Generated using &quot;atomic&quot; code by A. Dal Corso  v.6.3
     Shape of augmentation charge: PSQ
     Using radial grid of 1141 points,  6 beta functions with: 
                l(1) =   0
                l(2) =   0
                l(3) =   1
                l(4) =   1
                l(5) =   2
                l(6) =   2
     Q(r) pseudized with 0 coefficients 


     atomic species   valence    mass     pseudopotential
        Si             4.00    28.08550     Si( 1.00)

     48 Sym. Ops., with inversion, found (24 have fractional translation)



   Cartesian axes

     site n.     atom                  positions (alat units)
         1           Si  tau(   1) = (   0.0000000   0.0000000   0.0000000  )
         2           Si  tau(   2) = (   0.2500000   0.2500000   0.2500000  )

     number of k points=    28
                       cart. coord. in units 2pi/alat
        k(    1) = (  -0.0833333   0.0833333   0.0833333), wk =   0.0185185
        k(    2) = (  -0.2500000   0.2500000  -0.0833333), wk =   0.0555556
        k(    3) = (  -0.4166667   0.4166667  -0.2500000), wk =   0.0555556
        k(    4) = (   0.4166667  -0.4166667   0.5833333), wk =   0.0555556
        k(    5) = (   0.2500000  -0.2500000   0.4166667), wk =   0.0555556
        k(    6) = (   0.0833333  -0.0833333   0.2500000), wk =   0.0555556
        k(    7) = (  -0.0833333   0.4166667   0.0833333), wk =   0.0555556
        k(    8) = (  -0.2500000   0.5833333  -0.0833333), wk =   0.1111111
        k(    9) = (   0.5833333  -0.2500000   0.7500000), wk =   0.1111111
        k(   10) = (   0.4166667  -0.0833333   0.5833333), wk =   0.1111111
        k(   11) = (   0.2500000   0.0833333   0.4166667), wk =   0.1111111
        k(   12) = (  -0.0833333   0.7500000   0.0833333), wk =   0.0555556
        k(   13) = (   0.7500000  -0.0833333   0.9166667), wk =   0.1111111
        k(   14) = (   0.5833333   0.0833333   0.7500000), wk =   0.1111111
        k(   15) = (   0.4166667   0.2500000   0.5833333), wk =   0.1111111
        k(   16) = (  -0.0833333  -0.9166667   0.0833333), wk =   0.0555556
        k(   17) = (  -0.2500000  -0.7500000  -0.0833333), wk =   0.1111111
        k(   18) = (  -0.0833333  -0.5833333   0.0833333), wk =   0.0555556
        k(   19) = (  -0.2500000   0.2500000   0.2500000), wk =   0.0185185
        k(   20) = (  -0.4166667   0.4166667   0.0833333), wk =   0.0555556
        k(   21) = (   0.4166667  -0.4166667   0.9166667), wk =   0.0555556
        k(   22) = (   0.2500000  -0.2500000   0.7500000), wk =   0.0555556
        k(   23) = (  -0.2500000   0.5833333   0.2500000), wk =   0.0555556
        k(   24) = (   0.5833333  -0.2500000   1.0833333), wk =   0.1111111
        k(   25) = (   0.4166667  -0.0833333   0.9166667), wk =   0.1111111
        k(   26) = (  -0.2500000  -1.0833333   0.2500000), wk =   0.0555556
        k(   27) = (  -0.4166667   0.4166667   0.4166667), wk =   0.0185185
        k(   28) = (   0.4166667  -0.4166667   1.2500000), wk =   0.0555556

     Dense  grid:     6183 G-vectors     FFT dimensions: (  32,  32,  32)

     Estimated max dynamical RAM per process >       3.96 MB

     Estimated total dynamical RAM >      31.68 MB

     Check: negative core charge=   -0.000003

     Initial potential from superposition of free atoms

     starting charge       7.9989, renormalised to       8.0000
     Starting wfcs are    8 randomized atomic wfcs
     Checking if some PAW data can be deallocated... 

     total cpu time spent up to now is        0.2 secs

     Self-consistent Calculation

     iteration #  1     ecut=    30.00 Ry     beta= 0.70
     Davidson diagonalization with overlap
     ethr =  1.00E-02,  avg # of iterations =  2.0

     Threshold (ethr) on eigenvalues was too large:
     Diagonalizing with lowered threshold

     Davidson diagonalization with overlap
     ethr =  5.95E-04,  avg # of iterations =  1.6

     total cpu time spent up to now is        0.3 secs

     total energy              =     -93.45085586 Ry
     estimated scf accuracy    <       0.05173791 Ry

     iteration #  2     ecut=    30.00 Ry     beta= 0.70
     Davidson diagonalization with overlap
     ethr =  6.47E-04,  avg # of iterations =  1.0

     total cpu time spent up to now is        0.4 secs

     total energy              =     -93.45263440 Ry
     estimated scf accuracy    <       0.00279020 Ry

     iteration #  3     ecut=    30.00 Ry     beta= 0.70
     Davidson diagonalization with overlap
     ethr =  3.49E-05,  avg # of iterations =  2.6

     total cpu time spent up to now is        0.5 secs

     total energy              =     -93.45335276 Ry
     estimated scf accuracy    <       0.00009521 Ry

     iteration #  4     ecut=    30.00 Ry     beta= 0.70
     Davidson diagonalization with overlap
     ethr =  1.19E-06,  avg # of iterations =  4.2

     total cpu time spent up to now is        0.6 secs

     total energy              =     -93.45342783 Ry
     estimated scf accuracy    <       0.00000754 Ry

     iteration #  5     ecut=    30.00 Ry     beta= 0.70
     Davidson diagonalization with overlap
     ethr =  9.42E-08,  avg # of iterations =  4.0

     total cpu time spent up to now is        0.7 secs

     total energy              =     -93.45343192 Ry
     estimated scf accuracy    <       0.00000030 Ry

     iteration #  6     ecut=    30.00 Ry     beta= 0.70
     Davidson diagonalization with overlap
     ethr =  3.81E-09,  avg # of iterations =  4.3

     total cpu time spent up to now is        0.8 secs

     total energy              =     -93.45343209 Ry
     estimated scf accuracy    <       0.00000013 Ry

     iteration #  7     ecut=    30.00 Ry     beta= 0.70
     Davidson diagonalization with overlap
     ethr =  1.62E-09,  avg # of iterations =  2.2

     total cpu time spent up to now is        0.9 secs

     End of self-consistent calculation

          k =-0.0833 0.0833 0.0833 (   752 PWs)   bands (ev):

    -5.7611   5.0795   5.7997   5.7997

          k =-0.2500 0.2500-0.0833 (   774 PWs)   bands (ev):

    -5.2936   3.0158   4.5869   5.5905

          k =-0.4167 0.4167-0.2500 (   769 PWs)   bands (ev):

    -4.2244   0.3013   4.1243   4.9642

          k = 0.4167-0.4167 0.5833 (   771 PWs)   bands (ev):

    -3.5455  -0.8166   4.1861   4.5914

          k = 0.2500-0.2500 0.4167 (   774 PWs)   bands (ev):

    -4.6269   1.1322   4.6527   4.6766

          k = 0.0833-0.0833 0.2500 (   781 PWs)   bands (ev):

    -5.5250   4.0132   5.1672   5.3429

          k =-0.0833 0.4167 0.0833 (   775 PWs)   bands (ev):

    -5.0569   2.8159   4.4303   4.4507

          k =-0.2500 0.5833-0.0833 (   773 PWs)   bands (ev):

    -4.1646   1.0018   3.1404   4.0695

          k = 0.5833-0.2500 0.7500 (   765 PWs)   bands (ev):

    -3.0764  -0.7067   2.5435   3.8485

          k = 0.4167-0.0833 0.5833 (   771 PWs)   bands (ev):

    -3.7793   0.3244   2.5099   4.3234

          k = 0.2500 0.0833 0.4167 (   775 PWs)   bands (ev):

    -4.8361   1.9993   3.8237   4.9756

          k =-0.0833 0.7500 0.0833 (   773 PWs)   bands (ev):

    -3.4659   0.1771   3.1086   3.4392

          k = 0.7500-0.0833 0.9167 (   760 PWs)   bands (ev):

    -2.2954  -1.1407   2.2879   3.0437

          k = 0.5833 0.0833 0.7500 (   763 PWs)   bands (ev):

    -2.6641  -0.8018   1.8126   3.5780

          k = 0.4167 0.2500 0.5833 (   772 PWs)   bands (ev):

    -3.6719  -0.3325   3.4232   4.4184

          k =-0.0833-0.9167 0.0833 (   765 PWs)   bands (ev):

    -2.3829  -1.1475   2.8445   3.2274

          k =-0.2500-0.7500-0.0833 (   767 PWs)   bands (ev):

    -3.3020  -0.0406   2.5992   3.3779

          k =-0.0833-0.5833 0.0833 (   775 PWs)   bands (ev):

    -4.3654   1.5240   3.6411   3.8545

          k =-0.2500 0.2500 0.2500 (   778 PWs)   bands (ev):

    -5.0687   2.0565   5.1957   5.1957

          k =-0.4167 0.4167 0.0833 (   779 PWs)   bands (ev):

    -4.4032   1.1245   3.1044   5.0278

          k = 0.4167-0.4167 0.9167 (   769 PWs)   bands (ev):

    -3.2506  -0.2997   2.0222   4.2576

          k = 0.2500-0.2500 0.7500 (   768 PWs)   bands (ev):

    -3.1983  -0.3781   2.4880   3.7856

          k =-0.2500 0.5833 0.2500 (   775 PWs)   bands (ev):

    -3.9883   0.3338   3.5508   4.1519

          k = 0.5833-0.2500 1.0833 (   763 PWs)   bands (ev):

    -3.0076  -0.4187   2.1216   3.3776

          k = 0.4167-0.0833 0.9167 (   759 PWs)   bands (ev):

    -2.1942  -1.1484   1.9665   2.7256

          k =-0.2500-1.0833 0.2500 (   762 PWs)   bands (ev):

    -2.4013  -1.0504   1.8426   3.5945

          k =-0.4167 0.4167 0.4167 (   769 PWs)   bands (ev):

    -3.9044  -0.4245   4.8119   4.8119

          k = 0.4167-0.4167 1.2500 (   768 PWs)   bands (ev):

    -3.3139  -0.7274   3.0066   4.3816

     highest occupied level (ev):     5.7997

!    total energy              =     -93.45343211 Ry
     total all-electron energy =     -1160.145162 Ry
     estimated scf accuracy    <          1.1E-09 Ry

     The total energy is the sum of the following terms:
     one-electron contribution =       5.53876507 Ry
     hartree contribution      =       1.12292409 Ry
     xc contribution           =     -12.27764753 Ry
     ewald contribution        =     -16.65483457 Ry
     one-center paw contrib.   =     -71.18263917 Ry

     convergence has been achieved in   7 iterations

     Forces acting on atoms (cartesian axes, Ry/au):

     atom    1 type  1   force =    -0.00000000   -0.00000000    0.00000000
     atom    2 type  1   force =     0.00000000    0.00000000   -0.00000000

     Total force =     0.000000     Total SCF correction =     0.000000

     BFGS Geometry Optimization
     Energy error            =      0.0E+00 Ry
     Gradient error          =      1.6E-32 Ry/Bohr

     bfgs converged in   1 scf cycles and   0 bfgs steps
     (criteria: energy <  1.0E-05 Ry, force <  1.0E-04 Ry/Bohr)

     End of BFGS Geometry Optimization

     Final energy             =     -93.4534321112 Ry
Begin final coordinates

ATOMIC_POSITIONS (alat)
Si            0.0000000000        0.0000000000        0.0000000000
Si            0.2500000000        0.2500000000        0.2500000000
End final coordinates



     Writing all to output data dir ./tmp/silicon.save/
 
     init_run     :      0.07s CPU      0.09s WALL (       1 calls)
     electrons    :      0.65s CPU      0.73s WALL (       1 calls)
     forces       :      0.01s CPU      0.01s WALL (       1 calls)

     Called by init_run:
     wfcinit      :      0.01s CPU      0.01s WALL (       1 calls)
     potinit      :      0.04s CPU      0.05s WALL (       1 calls)
     hinit0       :      0.01s CPU      0.02s WALL (       1 calls)

     Called by electrons:
     c_bands      :      0.25s CPU      0.26s WALL (       8 calls)
     sum_band     :      0.06s CPU      0.06s WALL (       8 calls)
     v_of_rho     :      0.01s CPU      0.01s WALL (       8 calls)
     newd         :      0.01s CPU      0.02s WALL (       8 calls)
     PAW_pot      :      0.35s CPU      0.42s WALL (       8 calls)
     mix_rho      :      0.00s CPU      0.00s WALL (       8 calls)

     Called by c_bands:
     init_us_2    :      0.01s CPU      0.01s WALL (     504 calls)
     init_us_2:cp :      0.01s CPU      0.01s WALL (     504 calls)
     cegterg      :      0.15s CPU      0.16s WALL (     224 calls)

     Called by *egterg:
     cdiaghg      :      0.01s CPU      0.02s WALL (     811 calls)
     h_psi        :      0.12s CPU      0.13s WALL (     867 calls)
     s_psi        :      0.00s CPU      0.00s WALL (     867 calls)
     g_psi        :      0.00s CPU      0.00s WALL (     615 calls)

     Called by h_psi:
     h_psi:calbec :      0.01s CPU      0.01s WALL (     867 calls)
     vloc_psi     :      0.10s CPU      0.11s WALL (     867 calls)
     add_vuspsi   :      0.01s CPU      0.01s WALL (     867 calls)

     General routines
     calbec       :      0.01s CPU      0.01s WALL (    1203 calls)
     fft          :      0.00s CPU      0.00s WALL (     100 calls)
     ffts         :      0.00s CPU      0.00s WALL (       8 calls)
     fftw         :      0.10s CPU      0.11s WALL (    6902 calls)
 
     Parallel routines
 
     PWSCF        :      0.79s CPU      0.91s WALL

 
   This run was terminated on:  17:59:41  13Mar2026            

=------------------------------------------------------------------------------=
   JOB DONE.
=------------------------------------------------------------------------------=
