
     Program PWSCF v.7.1 starts on 13Mar2026 at 17:41:56 

     This program is part of the open-source Quantum ESPRESSO suite
     for quantum simulation of materials; please cite
         "P. Giannozzi et al., J. Phys.:Condens. Matter 21 395502 (2009);
         "P. Giannozzi et al., J. Phys.:Condens. Matter 29 465901 (2017);
         "P. Giannozzi et al., J. Chem. Phys. 152 154105 (2020);
          URL http://www.quantum-espresso.org", 
     in publications or presentations arising from this work. More details at
     http://www.quantum-espresso.org/quote

     Parallel version (MPI), running on     8 processors

     MPI processes distributed on     1 nodes
     11524 MiB available memory on the printing compute node when the environment starts
 
     Reading input from scf.in

     Current dimensions of program PWSCF are:
     Max number of different atomic species (ntypx) = 10
     Max number of k-points (npk) =  40000
     Max angular momentum in pseudopotentials (lmaxx) =  4
     file Si.pbe-n-kjpaw_psl.1.0.0.UPF: wavefunction(s)  3S 3P renormalized
 
     R & G space division:  proc/nbgrp/npool/nimage =       8
     Subspace diagonalization in iterative solution of the eigenvalue problem:
     a serial algorithm will be used

 
     Parallelization info
     --------------------
     sticks:   dense  smooth     PW     G-vecs:    dense   smooth      PW
     Min          45      45     15                  558      558     111
     Max          46      46     16                  560      560     114
     Sum         361     361    121                 4477     4477     893
 
     Using Slab Decomposition
 


     bravais-lattice index     =            2
     lattice parameter (alat)  =       9.3178  a.u.
     unit-cell volume          =     202.2443 (a.u.)^3
     number of atoms/cell      =            2
     number of atomic types    =            1
     number of electrons       =         8.00
     number of Kohn-Sham states=            4
     kinetic-energy cutoff     =      30.0000  Ry
     charge density cutoff     =     120.0000  Ry
     scf convergence threshold =      1.0E-06
     mixing beta               =       0.6000
     number of iterations used =            8  plain     mixing
     Exchange-correlation= SLA  PW   PBX  PBC
                           (   1   4   3   4   0   0   0)

     celldm(1)=   9.317772  celldm(2)=   0.000000  celldm(3)=   0.000000
     celldm(4)=   0.000000  celldm(5)=   0.000000  celldm(6)=   0.000000

     crystal axes: (cart. coord. in units of alat)
               a(1) = (  -0.500000   0.000000   0.500000 )  
               a(2) = (   0.000000   0.500000   0.500000 )  
               a(3) = (  -0.500000   0.500000   0.000000 )  

     reciprocal axes: (cart. coord. in units 2 pi/alat)
               b(1) = ( -1.000000 -1.000000  1.000000 )  
               b(2) = (  1.000000  1.000000  1.000000 )  
               b(3) = ( -1.000000  1.000000 -1.000000 )  


     PseudoPot. # 1 for Si read from file:
     /home/karan/pseudos/Si.pbe-n-kjpaw_psl.1.0.0.UPF
     MD5 check sum: c39c59da582df4a0d9f10159256ea34e
     Pseudo is Projector augmented-wave + core cor, Zval =  4.0
     Generated using &quot;atomic&quot; code by A. Dal Corso  v.6.3
     Shape of augmentation charge: PSQ
     Using radial grid of 1141 points,  6 beta functions with: 
                l(1) =   0
                l(2) =   0
                l(3) =   1
                l(4) =   1
                l(5) =   2
                l(6) =   2
     Q(r) pseudized with 0 coefficients 


     atomic species   valence    mass     pseudopotential
        Si             4.00    28.08600     Si( 1.00)

     48 Sym. Ops., with inversion, found (24 have fractional translation)



   Cartesian axes

     site n.     atom                  positions (alat units)
         1           Si  tau(   1) = (   0.0000000   0.0000000   0.0000000  )
         2           Si  tau(   2) = (   0.2500000   0.2500000   0.2500000  )

     number of k points=    28
                       cart. coord. in units 2pi/alat
        k(    1) = (  -0.0833333   0.0833333   0.0833333), wk =   0.0185185
        k(    2) = (  -0.2500000   0.2500000  -0.0833333), wk =   0.0555556
        k(    3) = (  -0.4166667   0.4166667  -0.2500000), wk =   0.0555556
        k(    4) = (   0.4166667  -0.4166667   0.5833333), wk =   0.0555556
        k(    5) = (   0.2500000  -0.2500000   0.4166667), wk =   0.0555556
        k(    6) = (   0.0833333  -0.0833333   0.2500000), wk =   0.0555556
        k(    7) = (  -0.0833333   0.4166667   0.0833333), wk =   0.0555556
        k(    8) = (  -0.2500000   0.5833333  -0.0833333), wk =   0.1111111
        k(    9) = (   0.5833333  -0.2500000   0.7500000), wk =   0.1111111
        k(   10) = (   0.4166667  -0.0833333   0.5833333), wk =   0.1111111
        k(   11) = (   0.2500000   0.0833333   0.4166667), wk =   0.1111111
        k(   12) = (  -0.0833333   0.7500000   0.0833333), wk =   0.0555556
        k(   13) = (   0.7500000  -0.0833333   0.9166667), wk =   0.1111111
        k(   14) = (   0.5833333   0.0833333   0.7500000), wk =   0.1111111
        k(   15) = (   0.4166667   0.2500000   0.5833333), wk =   0.1111111
        k(   16) = (  -0.0833333  -0.9166667   0.0833333), wk =   0.0555556
        k(   17) = (  -0.2500000  -0.7500000  -0.0833333), wk =   0.1111111
        k(   18) = (  -0.0833333  -0.5833333   0.0833333), wk =   0.0555556
        k(   19) = (  -0.2500000   0.2500000   0.2500000), wk =   0.0185185
        k(   20) = (  -0.4166667   0.4166667   0.0833333), wk =   0.0555556
        k(   21) = (   0.4166667  -0.4166667   0.9166667), wk =   0.0555556
        k(   22) = (   0.2500000  -0.2500000   0.7500000), wk =   0.0555556
        k(   23) = (  -0.2500000   0.5833333   0.2500000), wk =   0.0555556
        k(   24) = (   0.5833333  -0.2500000   1.0833333), wk =   0.1111111
        k(   25) = (   0.4166667  -0.0833333   0.9166667), wk =   0.1111111
        k(   26) = (  -0.2500000  -1.0833333   0.2500000), wk =   0.0555556
        k(   27) = (  -0.4166667   0.4166667   0.4166667), wk =   0.0185185
        k(   28) = (   0.4166667  -0.4166667   1.2500000), wk =   0.0555556

     Dense  grid:     4477 G-vectors     FFT dimensions: (  24,  24,  24)

     Estimated max dynamical RAM per process >       3.00 MB

     Estimated total dynamical RAM >      24.01 MB

     Check: negative core charge=   -0.000004

     Initial potential from superposition of free atoms

     starting charge       7.9989, renormalised to       8.0000
     Starting wfcs are    8 randomized atomic wfcs
     Checking if some PAW data can be deallocated... 

     total cpu time spent up to now is        0.1 secs

     Self-consistent Calculation

     iteration #  1     ecut=    30.00 Ry     beta= 0.60
     Davidson diagonalization with overlap
     ethr =  1.00E-02,  avg # of iterations =  2.0

     Threshold (ethr) on eigenvalues was too large:
     Diagonalizing with lowered threshold

     Davidson diagonalization with overlap
     ethr =  9.63E-04,  avg # of iterations =  1.1

     total cpu time spent up to now is        0.3 secs

     total energy              =     -93.34749046 Ry
     estimated scf accuracy    <       0.08294151 Ry

     iteration #  2     ecut=    30.00 Ry     beta= 0.60
     Davidson diagonalization with overlap
     ethr =  1.04E-03,  avg # of iterations =  1.0

     total cpu time spent up to now is        0.3 secs

     total energy              =     -93.34979675 Ry
     estimated scf accuracy    <       0.00741108 Ry

     iteration #  3     ecut=    30.00 Ry     beta= 0.60
     Davidson diagonalization with overlap
     ethr =  9.26E-05,  avg # of iterations =  2.4

     total cpu time spent up to now is        0.4 secs

     total energy              =     -93.35188414 Ry
     estimated scf accuracy    <       0.00027684 Ry

     iteration #  4     ecut=    30.00 Ry     beta= 0.60
     Davidson diagonalization with overlap
     ethr =  3.46E-06,  avg # of iterations =  3.8

     total cpu time spent up to now is        0.5 secs

     total energy              =     -93.35201431 Ry
     estimated scf accuracy    <       0.00005206 Ry

     iteration #  5     ecut=    30.00 Ry     beta= 0.60
     Davidson diagonalization with overlap
     ethr =  6.51E-07,  avg # of iterations =  3.3

     total cpu time spent up to now is        0.6 secs

     total energy              =     -93.35202951 Ry
     estimated scf accuracy    <       0.00000105 Ry

     iteration #  6     ecut=    30.00 Ry     beta= 0.60
     Davidson diagonalization with overlap
     ethr =  1.32E-08,  avg # of iterations =  5.1

     total cpu time spent up to now is        0.7 secs

     End of self-consistent calculation

          k =-0.0833 0.0833 0.0833 (   549 PWs)   bands (ev):

    -4.4442   8.7035   9.4766   9.4766

          k =-0.2500 0.2500-0.0833 (   563 PWs)   bands (ev):

    -3.8335   6.3018   7.8569   9.2781

          k =-0.4167 0.4167-0.2500 (   568 PWs)   bands (ev):

    -2.3910   2.8069   7.3838   8.4714

          k = 0.4167-0.4167 0.5833 (   566 PWs)   bands (ev):

    -1.3576   1.2270   7.5455   7.9514

          k = 0.2500-0.2500 0.4167 (   565 PWs)   bands (ev):

    -2.9465   3.8956   7.9645   8.1923

          k = 0.0833-0.0833 0.2500 (   557 PWs)   bands (ev):

    -4.1369   7.5303   8.5850   9.0072

          k =-0.0833 0.4167 0.0833 (   565 PWs)   bands (ev):

    -3.5267   6.3110   7.6377   7.7929

          k =-0.2500 0.5833-0.0833 (   559 PWs)   bands (ev):

    -2.3451   4.1064   5.9650   7.1660

          k = 0.5833-0.2500 0.7500 (   560 PWs)   bands (ev):

    -0.7590   1.6317   5.3223   6.8171

          k = 0.4167-0.0833 0.5833 (   561 PWs)   bands (ev):

    -1.8061   3.1546   5.1166   7.5165

          k = 0.2500 0.0833 0.4167 (   563 PWs)   bands (ev):

    -3.2320   5.1512   6.8714   8.4868

          k =-0.0833 0.7500 0.0833 (   564 PWs)   bands (ev):

    -1.4428   3.3288   5.8160   6.3407

          k = 0.7500-0.0833 0.9167 (   563 PWs)   bands (ev):

     0.1548   1.6527   4.5932   5.7216

          k = 0.5833 0.0833 0.7500 (   557 PWs)   bands (ev):

    -0.2197   1.8504   4.0257   6.4541

          k = 0.4167 0.2500 0.5833 (   567 PWs)   bands (ev):

    -1.6123   2.0117   6.5385   7.6729

          k =-0.0833-0.9167 0.0833 (   562 PWs)   bands (ev):

    -0.0156   1.6097   5.4584   6.0723

          k =-0.2500-0.7500-0.0833 (   565 PWs)   bands (ev):

    -1.1978   3.0026   5.1241   6.1525

          k =-0.0833-0.5833 0.0833 (   562 PWs)   bands (ev):

    -2.6230   4.9563   6.5926   6.8696

          k =-0.2500 0.2500 0.2500 (   564 PWs)   bands (ev):

    -3.5352   5.0246   8.7131   8.7131

          k =-0.4167 0.4167 0.0833 (   560 PWs)   bands (ev):

    -2.6511   4.0637   5.9218   8.5351

          k = 0.4167-0.4167 0.9167 (   557 PWs)   bands (ev):

    -1.0542   2.3707   4.4137   7.4628

          k = 0.2500-0.2500 0.7500 (   558 PWs)   bands (ev):

    -1.0082   2.2822   5.1147   6.8109

          k =-0.2500 0.5833 0.2500 (   568 PWs)   bands (ev):

    -2.0875   2.9893   6.7241   7.2935

          k = 0.5833-0.2500 1.0833 (   560 PWs)   bands (ev):

    -0.7480   2.3963   4.5176   6.1016

          k = 0.4167-0.0833 0.9167 (   556 PWs)   bands (ev):

     0.3745   1.6405   4.1316   5.1688

          k =-0.2500-1.0833 0.2500 (   560 PWs)   bands (ev):

     0.1114   1.6368   3.9687   6.5614

          k =-0.4167 0.4167 0.4167 (   565 PWs)   bands (ev):

    -1.9112   1.7852   8.2720   8.2720

          k = 0.4167-0.4167 1.2500 (   563 PWs)   bands (ev):

    -1.0611   1.4545   5.9668   7.6429

     highest occupied level (ev):     9.4766

!    total energy              =     -93.35203083 Ry
     total all-electron energy =     -1160.043761 Ry
     estimated scf accuracy    <       0.00000017 Ry

     The total energy is the sum of the following terms:
     one-electron contribution =       8.24397832 Ry
     hartree contribution      =       0.85402780 Ry
     xc contribution           =     -12.69894197 Ry
     ewald contribution        =     -18.49986648 Ry
     one-center paw contrib.   =     -71.25122851 Ry

     convergence has been achieved in   6 iterations

     Writing all to output data dir ./silicon.save/
 
     init_run     :      0.06s CPU      0.08s WALL (       1 calls)
     electrons    :      0.51s CPU      0.57s WALL (       1 calls)

     Called by init_run:
     wfcinit      :      0.01s CPU      0.01s WALL (       1 calls)
     potinit      :      0.04s CPU      0.05s WALL (       1 calls)
     hinit0       :      0.01s CPU      0.02s WALL (       1 calls)

     Called by electrons:
     c_bands      :      0.17s CPU      0.18s WALL (       7 calls)
     sum_band     :      0.04s CPU      0.04s WALL (       7 calls)
     v_of_rho     :      0.00s CPU      0.00s WALL (       7 calls)
     newd         :      0.01s CPU      0.01s WALL (       7 calls)
     PAW_pot      :      0.34s CPU      0.39s WALL (       7 calls)
     mix_rho      :      0.00s CPU      0.00s WALL (       7 calls)

     Called by c_bands:
     init_us_2    :      0.00s CPU      0.01s WALL (     420 calls)
     init_us_2:cp :      0.00s CPU      0.01s WALL (     420 calls)
     cegterg      :      0.11s CPU      0.12s WALL (     196 calls)

     Called by *egterg:
     cdiaghg      :      0.01s CPU      0.01s WALL (     692 calls)
     h_psi        :      0.08s CPU      0.09s WALL (     748 calls)
     s_psi        :      0.00s CPU      0.00s WALL (     748 calls)
     g_psi        :      0.00s CPU      0.00s WALL (     524 calls)

     Called by h_psi:
     h_psi:calbec :      0.01s CPU      0.01s WALL (     748 calls)
     vloc_psi     :      0.07s CPU      0.08s WALL (     748 calls)
     add_vuspsi   :      0.00s CPU      0.00s WALL (     748 calls)

     General routines
     calbec       :      0.01s CPU      0.01s WALL (     944 calls)
     fft          :      0.00s CPU      0.00s WALL (      78 calls)
     ffts         :      0.00s CPU      0.00s WALL (       7 calls)
     fftw         :      0.07s CPU      0.08s WALL (    6012 calls)
 
     Parallel routines
 
     PWSCF        :      0.64s CPU      0.73s WALL

 
   This run was terminated on:  17:41:57  13Mar2026            

=------------------------------------------------------------------------------=
   JOB DONE.
=------------------------------------------------------------------------------=
