
     Program PWSCF v.7.1 starts on 13Mar2026 at 17:41:58 

     This program is part of the open-source Quantum ESPRESSO suite
     for quantum simulation of materials; please cite
         "P. Giannozzi et al., J. Phys.:Condens. Matter 21 395502 (2009);
         "P. Giannozzi et al., J. Phys.:Condens. Matter 29 465901 (2017);
         "P. Giannozzi et al., J. Chem. Phys. 152 154105 (2020);
          URL http://www.quantum-espresso.org", 
     in publications or presentations arising from this work. More details at
     http://www.quantum-espresso.org/quote

     Parallel version (MPI), running on     8 processors

     MPI processes distributed on     1 nodes
     11521 MiB available memory on the printing compute node when the environment starts
 
     Reading input from scf.in

     Current dimensions of program PWSCF are:
     Max number of different atomic species (ntypx) = 10
     Max number of k-points (npk) =  40000
     Max angular momentum in pseudopotentials (lmaxx) =  4
     file Si.pbe-n-kjpaw_psl.1.0.0.UPF: wavefunction(s)  3S 3P renormalized
 
     R & G space division:  proc/nbgrp/npool/nimage =       8
     Subspace diagonalization in iterative solution of the eigenvalue problem:
     a serial algorithm will be used

 
     Parallelization info
     --------------------
     sticks:   dense  smooth     PW     G-vecs:    dense   smooth      PW
     Min          45      45     15                  570      570     117
     Max          46      46     16                  573      573     121
     Sum         361     361    121                 4573     4573     941
 
     Using Slab Decomposition
 


     bravais-lattice index     =            2
     lattice parameter (alat)  =       9.3695  a.u.
     unit-cell volume          =     205.6338 (a.u.)^3
     number of atoms/cell      =            2
     number of atomic types    =            1
     number of electrons       =         8.00
     number of Kohn-Sham states=            4
     kinetic-energy cutoff     =      30.0000  Ry
     charge density cutoff     =     120.0000  Ry
     scf convergence threshold =      1.0E-06
     mixing beta               =       0.6000
     number of iterations used =            8  plain     mixing
     Exchange-correlation= SLA  PW   PBX  PBC
                           (   1   4   3   4   0   0   0)

     celldm(1)=   9.369537  celldm(2)=   0.000000  celldm(3)=   0.000000
     celldm(4)=   0.000000  celldm(5)=   0.000000  celldm(6)=   0.000000

     crystal axes: (cart. coord. in units of alat)
               a(1) = (  -0.500000   0.000000   0.500000 )  
               a(2) = (   0.000000   0.500000   0.500000 )  
               a(3) = (  -0.500000   0.500000   0.000000 )  

     reciprocal axes: (cart. coord. in units 2 pi/alat)
               b(1) = ( -1.000000 -1.000000  1.000000 )  
               b(2) = (  1.000000  1.000000  1.000000 )  
               b(3) = ( -1.000000  1.000000 -1.000000 )  


     PseudoPot. # 1 for Si read from file:
     /home/karan/pseudos/Si.pbe-n-kjpaw_psl.1.0.0.UPF
     MD5 check sum: c39c59da582df4a0d9f10159256ea34e
     Pseudo is Projector augmented-wave + core cor, Zval =  4.0
     Generated using &quot;atomic&quot; code by A. Dal Corso  v.6.3
     Shape of augmentation charge: PSQ
     Using radial grid of 1141 points,  6 beta functions with: 
                l(1) =   0
                l(2) =   0
                l(3) =   1
                l(4) =   1
                l(5) =   2
                l(6) =   2
     Q(r) pseudized with 0 coefficients 


     atomic species   valence    mass     pseudopotential
        Si             4.00    28.08600     Si( 1.00)

     48 Sym. Ops., with inversion, found (24 have fractional translation)



   Cartesian axes

     site n.     atom                  positions (alat units)
         1           Si  tau(   1) = (   0.0000000   0.0000000   0.0000000  )
         2           Si  tau(   2) = (   0.2500000   0.2500000   0.2500000  )

     number of k points=    28
                       cart. coord. in units 2pi/alat
        k(    1) = (  -0.0833333   0.0833333   0.0833333), wk =   0.0185185
        k(    2) = (  -0.2500000   0.2500000  -0.0833333), wk =   0.0555556
        k(    3) = (  -0.4166667   0.4166667  -0.2500000), wk =   0.0555556
        k(    4) = (   0.4166667  -0.4166667   0.5833333), wk =   0.0555556
        k(    5) = (   0.2500000  -0.2500000   0.4166667), wk =   0.0555556
        k(    6) = (   0.0833333  -0.0833333   0.2500000), wk =   0.0555556
        k(    7) = (  -0.0833333   0.4166667   0.0833333), wk =   0.0555556
        k(    8) = (  -0.2500000   0.5833333  -0.0833333), wk =   0.1111111
        k(    9) = (   0.5833333  -0.2500000   0.7500000), wk =   0.1111111
        k(   10) = (   0.4166667  -0.0833333   0.5833333), wk =   0.1111111
        k(   11) = (   0.2500000   0.0833333   0.4166667), wk =   0.1111111
        k(   12) = (  -0.0833333   0.7500000   0.0833333), wk =   0.0555556
        k(   13) = (   0.7500000  -0.0833333   0.9166667), wk =   0.1111111
        k(   14) = (   0.5833333   0.0833333   0.7500000), wk =   0.1111111
        k(   15) = (   0.4166667   0.2500000   0.5833333), wk =   0.1111111
        k(   16) = (  -0.0833333  -0.9166667   0.0833333), wk =   0.0555556
        k(   17) = (  -0.2500000  -0.7500000  -0.0833333), wk =   0.1111111
        k(   18) = (  -0.0833333  -0.5833333   0.0833333), wk =   0.0555556
        k(   19) = (  -0.2500000   0.2500000   0.2500000), wk =   0.0185185
        k(   20) = (  -0.4166667   0.4166667   0.0833333), wk =   0.0555556
        k(   21) = (   0.4166667  -0.4166667   0.9166667), wk =   0.0555556
        k(   22) = (   0.2500000  -0.2500000   0.7500000), wk =   0.0555556
        k(   23) = (  -0.2500000   0.5833333   0.2500000), wk =   0.0555556
        k(   24) = (   0.5833333  -0.2500000   1.0833333), wk =   0.1111111
        k(   25) = (   0.4166667  -0.0833333   0.9166667), wk =   0.1111111
        k(   26) = (  -0.2500000  -1.0833333   0.2500000), wk =   0.0555556
        k(   27) = (  -0.4166667   0.4166667   0.4166667), wk =   0.0185185
        k(   28) = (   0.4166667  -0.4166667   1.2500000), wk =   0.0555556

     Dense  grid:     4573 G-vectors     FFT dimensions: (  24,  24,  24)

     Estimated max dynamical RAM per process >       3.04 MB

     Estimated total dynamical RAM >      24.34 MB

     Check: negative core charge=   -0.000003

     Initial potential from superposition of free atoms

     starting charge       7.9989, renormalised to       8.0000
     Starting wfcs are    8 randomized atomic wfcs
     Checking if some PAW data can be deallocated... 

     total cpu time spent up to now is        0.2 secs

     Self-consistent Calculation

     iteration #  1     ecut=    30.00 Ry     beta= 0.60
     Davidson diagonalization with overlap
     ethr =  1.00E-02,  avg # of iterations =  2.0

     Threshold (ethr) on eigenvalues was too large:
     Diagonalizing with lowered threshold

     Davidson diagonalization with overlap
     ethr =  9.44E-04,  avg # of iterations =  1.0

     total cpu time spent up to now is        0.3 secs

     total energy              =     -93.35915240 Ry
     estimated scf accuracy    <       0.08123693 Ry

     iteration #  2     ecut=    30.00 Ry     beta= 0.60
     Davidson diagonalization with overlap
     ethr =  1.02E-03,  avg # of iterations =  1.0

     total cpu time spent up to now is        0.4 secs

     total energy              =     -93.36135913 Ry
     estimated scf accuracy    <       0.00735383 Ry

     iteration #  3     ecut=    30.00 Ry     beta= 0.60
     Davidson diagonalization with overlap
     ethr =  9.19E-05,  avg # of iterations =  2.4

     total cpu time spent up to now is        0.4 secs

     total energy              =     -93.36342596 Ry
     estimated scf accuracy    <       0.00027073 Ry

     iteration #  4     ecut=    30.00 Ry     beta= 0.60
     Davidson diagonalization with overlap
     ethr =  3.38E-06,  avg # of iterations =  3.9

     total cpu time spent up to now is        0.5 secs

     total energy              =     -93.36356894 Ry
     estimated scf accuracy    <       0.00004954 Ry

     iteration #  5     ecut=    30.00 Ry     beta= 0.60
     Davidson diagonalization with overlap
     ethr =  6.19E-07,  avg # of iterations =  3.2

     total cpu time spent up to now is        0.6 secs

     total energy              =     -93.36358460 Ry
     estimated scf accuracy    <       0.00000111 Ry

     iteration #  6     ecut=    30.00 Ry     beta= 0.60
     Davidson diagonalization with overlap
     ethr =  1.38E-08,  avg # of iterations =  5.4

     total cpu time spent up to now is        0.7 secs

     End of self-consistent calculation

          k =-0.0833 0.0833 0.0833 (   555 PWs)   bands (ev):

    -4.5252   8.4892   9.2550   9.2550

          k =-0.2500 0.2500-0.0833 (   566 PWs)   bands (ev):

    -3.9227   6.1098   7.6589   9.0543

          k =-0.4167 0.4167-0.2500 (   577 PWs)   bands (ev):

    -2.5018   2.6591   7.1859   8.2577

          k = 0.4167-0.4167 0.5833 (   573 PWs)   bands (ev):

    -1.4910   1.1076   7.3409   7.7469

          k = 0.2500-0.2500 0.4167 (   573 PWs)   bands (ev):

    -3.0484   3.7330   7.7638   7.9783

          k = 0.0833-0.0833 0.2500 (   564 PWs)   bands (ev):

    -4.2220   7.3252   8.3789   8.7847

          k =-0.0833 0.4167 0.0833 (   574 PWs)   bands (ev):

    -3.6199   6.1087   7.4449   7.5853

          k =-0.2500 0.5833-0.0833 (   572 PWs)   bands (ev):

    -2.4550   3.9251   5.7908   6.9783

          k = 0.5833-0.2500 0.7500 (   567 PWs)   bands (ev):

    -0.8998   1.4972   5.1496   6.6381

          k = 0.4167-0.0833 0.5833 (   570 PWs)   bands (ev):

    -1.9251   2.9898   4.9550   7.3231

          k = 0.2500 0.0833 0.4167 (   569 PWs)   bands (ev):

    -3.3294   4.9676   6.6855   8.2731

          k =-0.0833 0.7500 0.0833 (   571 PWs)   bands (ev):

    -1.5644   3.1407   5.6520   6.1639

          k = 0.7500-0.0833 0.9167 (   573 PWs)   bands (ev):

     0.0078   1.4851   4.4539   5.5592

          k = 0.5833 0.0833 0.7500 (   568 PWs)   bands (ev):

    -0.3680   1.6957   3.8886   6.2801

          k = 0.4167 0.2500 0.5833 (   571 PWs)   bands (ev):

    -1.7367   1.8743   6.3480   7.4755

          k =-0.0833-0.9167 0.0833 (   574 PWs)   bands (ev):

    -0.1572   1.4451   5.2996   5.8986

          k =-0.2500-0.7500-0.0833 (   574 PWs)   bands (ev):

    -1.3242   2.8215   4.9696   5.9851

          k =-0.0833-0.5833 0.0833 (   572 PWs)   bands (ev):

    -2.7284   4.7537   6.4123   6.6865

          k =-0.2500 0.2500 0.2500 (   573 PWs)   bands (ev):

    -3.6286   4.8500   8.5000   8.5000

          k =-0.4167 0.4167 0.0833 (   571 PWs)   bands (ev):

    -2.7572   3.8923   5.7488   8.3219

          k = 0.4167-0.4167 0.9167 (   573 PWs)   bands (ev):

    -1.1868   2.2155   4.2648   7.2681

          k = 0.2500-0.2500 0.7500 (   573 PWs)   bands (ev):

    -1.1401   2.1271   4.9519   6.6269

          k =-0.2500 0.5833 0.2500 (   577 PWs)   bands (ev):

    -2.2022   2.8339   6.5292   7.1028

          k = 0.5833-0.2500 1.0833 (   564 PWs)   bands (ev):

    -0.8841   2.2311   4.3685   5.9379

          k = 0.4167-0.0833 0.9167 (   570 PWs)   bands (ev):

     0.2191   1.4734   4.0003   5.0219

          k =-0.2500-1.0833 0.2500 (   569 PWs)   bands (ev):

    -0.0408   1.4775   3.8395   6.3807

          k =-0.4167 0.4167 0.4167 (   580 PWs)   bands (ev):

    -2.0319   1.6544   8.0611   8.0611

          k = 0.4167-0.4167 1.2500 (   568 PWs)   bands (ev):

    -1.1982   1.3282   5.7852   7.4448

     highest occupied level (ev):     9.2550

!    total energy              =     -93.36358586 Ry
     total all-electron energy =     -1160.055316 Ry
     estimated scf accuracy    <       0.00000042 Ry

     The total energy is the sum of the following terms:
     one-electron contribution =       8.08743345 Ry
     hartree contribution      =       0.86784113 Ry
     xc contribution           =     -12.67458578 Ry
     ewald contribution        =     -18.39765726 Ry
     one-center paw contrib.   =     -71.24661740 Ry

     convergence has been achieved in   6 iterations

     Writing all to output data dir ./silicon.save/
 
     init_run     :      0.07s CPU      0.09s WALL (       1 calls)
     electrons    :      0.52s CPU      0.59s WALL (       1 calls)

     Called by init_run:
     wfcinit      :      0.01s CPU      0.01s WALL (       1 calls)
     potinit      :      0.04s CPU      0.05s WALL (       1 calls)
     hinit0       :      0.01s CPU      0.02s WALL (       1 calls)

     Called by electrons:
     c_bands      :      0.18s CPU      0.19s WALL (       7 calls)
     sum_band     :      0.04s CPU      0.04s WALL (       7 calls)
     v_of_rho     :      0.00s CPU      0.00s WALL (       7 calls)
     newd         :      0.01s CPU      0.01s WALL (       7 calls)
     PAW_pot      :      0.33s CPU      0.40s WALL (       7 calls)
     mix_rho      :      0.00s CPU      0.00s WALL (       7 calls)

     Called by c_bands:
     init_us_2    :      0.01s CPU      0.01s WALL (     420 calls)
     init_us_2:cp :      0.01s CPU      0.01s WALL (     420 calls)
     cegterg      :      0.11s CPU      0.12s WALL (     196 calls)

     Called by *egterg:
     cdiaghg      :      0.01s CPU      0.01s WALL (     698 calls)
     h_psi        :      0.09s CPU      0.09s WALL (     754 calls)
     s_psi        :      0.00s CPU      0.00s WALL (     754 calls)
     g_psi        :      0.00s CPU      0.00s WALL (     530 calls)

     Called by h_psi:
     h_psi:calbec :      0.01s CPU      0.01s WALL (     754 calls)
     vloc_psi     :      0.07s CPU      0.08s WALL (     754 calls)
     add_vuspsi   :      0.00s CPU      0.00s WALL (     754 calls)

     General routines
     calbec       :      0.01s CPU      0.01s WALL (     950 calls)
     fft          :      0.00s CPU      0.00s WALL (      78 calls)
     ffts         :      0.00s CPU      0.00s WALL (       7 calls)
     fftw         :      0.08s CPU      0.08s WALL (    6072 calls)
 
     Parallel routines
 
     PWSCF        :      0.68s CPU      0.76s WALL

 
   This run was terminated on:  17:41:59  13Mar2026            

=------------------------------------------------------------------------------=
   JOB DONE.
=------------------------------------------------------------------------------=
