
     Program PWSCF v.7.1 starts on 13Mar2026 at 17:42:21 

     This program is part of the open-source Quantum ESPRESSO suite
     for quantum simulation of materials; please cite
         "P. Giannozzi et al., J. Phys.:Condens. Matter 21 395502 (2009);
         "P. Giannozzi et al., J. Phys.:Condens. Matter 29 465901 (2017);
         "P. Giannozzi et al., J. Chem. Phys. 152 154105 (2020);
          URL http://www.quantum-espresso.org", 
     in publications or presentations arising from this work. More details at
     http://www.quantum-espresso.org/quote

     Parallel version (MPI), running on     8 processors

     MPI processes distributed on     1 nodes
     11517 MiB available memory on the printing compute node when the environment starts
 
     Reading input from scf.in

     Current dimensions of program PWSCF are:
     Max number of different atomic species (ntypx) = 10
     Max number of k-points (npk) =  40000
     Max angular momentum in pseudopotentials (lmaxx) =  4
     file Si.pbe-n-kjpaw_psl.1.0.0.UPF: wavefunction(s)  3S 3P renormalized
 
     R & G space division:  proc/nbgrp/npool/nimage =       8
     Subspace diagonalization in iterative solution of the eigenvalue problem:
     a serial algorithm will be used

 
     Parallelization info
     --------------------
     sticks:   dense  smooth     PW     G-vecs:    dense   smooth      PW
     Min          54      54     18                  744      744     142
     Max          55      55     20                  747      747     143
     Sum         433     433    151                 5961     5961    1139
 
     Using Slab Decomposition
 


     bravais-lattice index     =            2
     lattice parameter (alat)  =      10.2495  a.u.
     unit-cell volume          =     269.1871 (a.u.)^3
     number of atoms/cell      =            2
     number of atomic types    =            1
     number of electrons       =         8.00
     number of Kohn-Sham states=            4
     kinetic-energy cutoff     =      30.0000  Ry
     charge density cutoff     =     120.0000  Ry
     scf convergence threshold =      1.0E-06
     mixing beta               =       0.6000
     number of iterations used =            8  plain     mixing
     Exchange-correlation= SLA  PW   PBX  PBC
                           (   1   4   3   4   0   0   0)

     celldm(1)=  10.249549  celldm(2)=   0.000000  celldm(3)=   0.000000
     celldm(4)=   0.000000  celldm(5)=   0.000000  celldm(6)=   0.000000

     crystal axes: (cart. coord. in units of alat)
               a(1) = (  -0.500000   0.000000   0.500000 )  
               a(2) = (   0.000000   0.500000   0.500000 )  
               a(3) = (  -0.500000   0.500000   0.000000 )  

     reciprocal axes: (cart. coord. in units 2 pi/alat)
               b(1) = ( -1.000000 -1.000000  1.000000 )  
               b(2) = (  1.000000  1.000000  1.000000 )  
               b(3) = ( -1.000000  1.000000 -1.000000 )  


     PseudoPot. # 1 for Si read from file:
     /home/karan/pseudos/Si.pbe-n-kjpaw_psl.1.0.0.UPF
     MD5 check sum: c39c59da582df4a0d9f10159256ea34e
     Pseudo is Projector augmented-wave + core cor, Zval =  4.0
     Generated using &quot;atomic&quot; code by A. Dal Corso  v.6.3
     Shape of augmentation charge: PSQ
     Using radial grid of 1141 points,  6 beta functions with: 
                l(1) =   0
                l(2) =   0
                l(3) =   1
                l(4) =   1
                l(5) =   2
                l(6) =   2
     Q(r) pseudized with 0 coefficients 


     atomic species   valence    mass     pseudopotential
        Si             4.00    28.08600     Si( 1.00)

     48 Sym. Ops., with inversion, found (24 have fractional translation)



   Cartesian axes

     site n.     atom                  positions (alat units)
         1           Si  tau(   1) = (   0.0000000   0.0000000   0.0000000  )
         2           Si  tau(   2) = (   0.2500000   0.2500000   0.2500000  )

     number of k points=    28
                       cart. coord. in units 2pi/alat
        k(    1) = (  -0.0833333   0.0833333   0.0833333), wk =   0.0185185
        k(    2) = (  -0.2500000   0.2500000  -0.0833333), wk =   0.0555556
        k(    3) = (  -0.4166667   0.4166667  -0.2500000), wk =   0.0555556
        k(    4) = (   0.4166667  -0.4166667   0.5833333), wk =   0.0555556
        k(    5) = (   0.2500000  -0.2500000   0.4166667), wk =   0.0555556
        k(    6) = (   0.0833333  -0.0833333   0.2500000), wk =   0.0555556
        k(    7) = (  -0.0833333   0.4166667   0.0833333), wk =   0.0555556
        k(    8) = (  -0.2500000   0.5833333  -0.0833333), wk =   0.1111111
        k(    9) = (   0.5833333  -0.2500000   0.7500000), wk =   0.1111111
        k(   10) = (   0.4166667  -0.0833333   0.5833333), wk =   0.1111111
        k(   11) = (   0.2500000   0.0833333   0.4166667), wk =   0.1111111
        k(   12) = (  -0.0833333   0.7500000   0.0833333), wk =   0.0555556
        k(   13) = (   0.7500000  -0.0833333   0.9166667), wk =   0.1111111
        k(   14) = (   0.5833333   0.0833333   0.7500000), wk =   0.1111111
        k(   15) = (   0.4166667   0.2500000   0.5833333), wk =   0.1111111
        k(   16) = (  -0.0833333  -0.9166667   0.0833333), wk =   0.0555556
        k(   17) = (  -0.2500000  -0.7500000  -0.0833333), wk =   0.1111111
        k(   18) = (  -0.0833333  -0.5833333   0.0833333), wk =   0.0555556
        k(   19) = (  -0.2500000   0.2500000   0.2500000), wk =   0.0185185
        k(   20) = (  -0.4166667   0.4166667   0.0833333), wk =   0.0555556
        k(   21) = (   0.4166667  -0.4166667   0.9166667), wk =   0.0555556
        k(   22) = (   0.2500000  -0.2500000   0.7500000), wk =   0.0555556
        k(   23) = (  -0.2500000   0.5833333   0.2500000), wk =   0.0555556
        k(   24) = (   0.5833333  -0.2500000   1.0833333), wk =   0.1111111
        k(   25) = (   0.4166667  -0.0833333   0.9166667), wk =   0.1111111
        k(   26) = (  -0.2500000  -1.0833333   0.2500000), wk =   0.0555556
        k(   27) = (  -0.4166667   0.4166667   0.4166667), wk =   0.0185185
        k(   28) = (   0.4166667  -0.4166667   1.2500000), wk =   0.0555556

     Dense  grid:     5961 G-vectors     FFT dimensions: (  32,  32,  32)

     Estimated max dynamical RAM per process >       3.83 MB

     Estimated total dynamical RAM >      30.62 MB

     Check: negative core charge=   -0.000003

     Initial potential from superposition of free atoms

     starting charge       7.9989, renormalised to       8.0000
     Starting wfcs are    8 randomized atomic wfcs
     Checking if some PAW data can be deallocated... 

     total cpu time spent up to now is        0.2 secs

     Self-consistent Calculation

     iteration #  1     ecut=    30.00 Ry     beta= 0.60
     Davidson diagonalization with overlap
     ethr =  1.00E-02,  avg # of iterations =  2.0

     Threshold (ethr) on eigenvalues was too large:
     Diagonalizing with lowered threshold

     Davidson diagonalization with overlap
     ethr =  6.26E-04,  avg # of iterations =  1.4

     total cpu time spent up to now is        0.3 secs

     total energy              =     -93.45107128 Ry
     estimated scf accuracy    <       0.05423733 Ry

     iteration #  2     ecut=    30.00 Ry     beta= 0.60
     Davidson diagonalization with overlap
     ethr =  6.78E-04,  avg # of iterations =  1.0

     total cpu time spent up to now is        0.4 secs

     total energy              =     -93.45178859 Ry
     estimated scf accuracy    <       0.00616885 Ry

     iteration #  3     ecut=    30.00 Ry     beta= 0.60
     Davidson diagonalization with overlap
     ethr =  7.71E-05,  avg # of iterations =  2.0

     total cpu time spent up to now is        0.5 secs

     total energy              =     -93.45277252 Ry
     estimated scf accuracy    <       0.00015395 Ry

     iteration #  4     ecut=    30.00 Ry     beta= 0.60
     Davidson diagonalization with overlap
     ethr =  1.92E-06,  avg # of iterations =  4.4

     total cpu time spent up to now is        0.6 secs

     total energy              =     -93.45289184 Ry
     estimated scf accuracy    <       0.00002452 Ry

     iteration #  5     ecut=    30.00 Ry     beta= 0.60
     Davidson diagonalization with overlap
     ethr =  3.06E-07,  avg # of iterations =  3.2

     total cpu time spent up to now is        0.7 secs

     End of self-consistent calculation

          k =-0.0833 0.0833 0.0833 (   737 PWs)   bands (ev):

    -5.6532   5.3861   6.1014   6.1014

          k =-0.2500 0.2500-0.0833 (   754 PWs)   bands (ev):

    -5.1734   3.2976   4.8537   5.8913

          k =-0.4167 0.4167-0.2500 (   752 PWs)   bands (ev):

    -4.0727   0.5145   4.3896   5.2490

          k = 0.4167-0.4167 0.5833 (   749 PWs)   bands (ev):

    -3.3664  -0.6406   4.4588   4.8645

          k = 0.2500-0.2500 0.4167 (   756 PWs)   bands (ev):

    -4.4879   1.3677   4.9230   4.9622

          k = 0.0833-0.0833 0.2500 (   751 PWs)   bands (ev):

    -5.4110   4.3159   5.4478   5.6410

          k =-0.0833 0.4167 0.0833 (   745 PWs)   bands (ev):

    -4.9306   3.1172   4.6997   4.7113

          k =-0.2500 0.5833-0.0833 (   748 PWs)   bands (ev):

    -4.0138   1.2667   3.3670   4.3221

          k = 0.5833-0.2500 0.7500 (   743 PWs)   bands (ev):

    -2.8863  -0.5031   2.7639   4.0918

          k = 0.4167-0.0833 0.5833 (   751 PWs)   bands (ev):

    -3.6158   0.5668   2.7178   4.5841

          k = 0.2500 0.0833 0.4167 (   754 PWs)   bands (ev):

    -4.7035   2.2701   4.0705   5.2608

          k =-0.0833 0.7500 0.0833 (   748 PWs)   bands (ev):

    -3.2977   0.4401   3.3295   3.6748

          k = 0.7500-0.0833 0.9167 (   743 PWs)   bands (ev):

    -2.0919  -0.9088   2.4767   3.2622

          k = 0.5833 0.0833 0.7500 (   741 PWs)   bands (ev):

    -2.4633  -0.5757   1.9900   3.8130

          k = 0.4167 0.2500 0.5833 (   750 PWs)   bands (ev):

    -3.5017  -0.1315   3.6744   4.6837

          k =-0.0833-0.9167 0.0833 (   747 PWs)   bands (ev):

    -2.1856  -0.9175   3.0575   3.4580

          k =-0.2500-0.7500-0.0833 (   748 PWs)   bands (ev):

    -3.1272   0.2141   2.8036   3.6053

          k =-0.0833-0.5833 0.0833 (   741 PWs)   bands (ev):

    -4.2211   1.8135   3.8803   4.1001

          k =-0.2500 0.2500 0.2500 (   754 PWs)   bands (ev):

    -4.9422   2.3093   5.4828   5.4828

          k =-0.4167 0.4167 0.0833 (   746 PWs)   bands (ev):

    -4.2581   1.3766   3.3309   5.3133

          k = 0.4167-0.4167 0.9167 (   744 PWs)   bands (ev):

    -3.0690  -0.0707   2.2123   4.5186

          k = 0.2500-0.2500 0.7500 (   748 PWs)   bands (ev):

    -3.0170  -0.1503   2.6974   4.0316

          k =-0.2500 0.5833 0.2500 (   752 PWs)   bands (ev):

    -3.8308   0.5614   3.8055   4.4079

          k = 0.5833-0.2500 1.0833 (   742 PWs)   bands (ev):

    -2.8206  -0.1802   2.3126   3.6017

          k = 0.4167-0.0833 0.9167 (   743 PWs)   bands (ev):

    -1.9827  -0.9166   2.1434   2.9267

          k =-0.2500-1.0833 0.2500 (   742 PWs)   bands (ev):

    -2.1946  -0.8247   2.0161   3.8355

          k =-0.4167 0.4167 0.4167 (   760 PWs)   bands (ev):

    -3.7398  -0.2368   5.0926   5.0926

          k = 0.4167-0.4167 1.2500 (   747 PWs)   bands (ev):

    -3.1293  -0.5379   3.2445   4.6470

     highest occupied level (ev):     6.1014

!    total energy              =     -93.45290003 Ry
     total all-electron energy =     -1160.144630 Ry
     estimated scf accuracy    <       0.00000054 Ry

     The total energy is the sum of the following terms:
     one-electron contribution =       5.76859642 Ry
     hartree contribution      =       1.09696665 Ry
     xc contribution           =     -12.31307677 Ry
     ewald contribution        =     -16.81806043 Ry
     one-center paw contrib.   =     -71.18732590 Ry

     convergence has been achieved in   5 iterations

     Writing all to output data dir ./silicon.save/
 
     init_run     :      0.07s CPU      0.09s WALL (       1 calls)
     electrons    :      0.47s CPU      0.53s WALL (       1 calls)

     Called by init_run:
     wfcinit      :      0.01s CPU      0.01s WALL (       1 calls)
     potinit      :      0.04s CPU      0.05s WALL (       1 calls)
     hinit0       :      0.02s CPU      0.02s WALL (       1 calls)

     Called by electrons:
     c_bands      :      0.17s CPU      0.19s WALL (       6 calls)
     sum_band     :      0.04s CPU      0.05s WALL (       6 calls)
     v_of_rho     :      0.01s CPU      0.01s WALL (       6 calls)
     newd         :      0.01s CPU      0.01s WALL (       6 calls)
     PAW_pot      :      0.28s CPU      0.33s WALL (       6 calls)
     mix_rho      :      0.00s CPU      0.00s WALL (       6 calls)

     Called by c_bands:
     init_us_2    :      0.01s CPU      0.01s WALL (     364 calls)
     init_us_2:cp :      0.01s CPU      0.01s WALL (     364 calls)
     cegterg      :      0.10s CPU      0.11s WALL (     168 calls)

     Called by *egterg:
     cdiaghg      :      0.01s CPU      0.01s WALL (     533 calls)
     h_psi        :      0.08s CPU      0.09s WALL (     589 calls)
     s_psi        :      0.00s CPU      0.00s WALL (     589 calls)
     g_psi        :      0.00s CPU      0.00s WALL (     393 calls)

     Called by h_psi:
     h_psi:calbec :      0.01s CPU      0.01s WALL (     589 calls)
     vloc_psi     :      0.07s CPU      0.08s WALL (     589 calls)
     add_vuspsi   :      0.00s CPU      0.00s WALL (     589 calls)

     General routines
     calbec       :      0.01s CPU      0.01s WALL (     757 calls)
     fft          :      0.00s CPU      0.00s WALL (      67 calls)
     ffts         :      0.00s CPU      0.00s WALL (       6 calls)
     fftw         :      0.07s CPU      0.08s WALL (    4942 calls)
 
     Parallel routines
 
     PWSCF        :      0.62s CPU      0.72s WALL

 
   This run was terminated on:  17:42:21  13Mar2026            

=------------------------------------------------------------------------------=
   JOB DONE.
=------------------------------------------------------------------------------=
