
     Program PWSCF v.7.1 starts on 13Mar2026 at 17:42:22 

     This program is part of the open-source Quantum ESPRESSO suite
     for quantum simulation of materials; please cite
         "P. Giannozzi et al., J. Phys.:Condens. Matter 21 395502 (2009);
         "P. Giannozzi et al., J. Phys.:Condens. Matter 29 465901 (2017);
         "P. Giannozzi et al., J. Chem. Phys. 152 154105 (2020);
          URL http://www.quantum-espresso.org", 
     in publications or presentations arising from this work. More details at
     http://www.quantum-espresso.org/quote

     Parallel version (MPI), running on     8 processors

     MPI processes distributed on     1 nodes
     11513 MiB available memory on the printing compute node when the environment starts
 
     Reading input from scf.in

     Current dimensions of program PWSCF are:
     Max number of different atomic species (ntypx) = 10
     Max number of k-points (npk) =  40000
     Max angular momentum in pseudopotentials (lmaxx) =  4
     file Si.pbe-n-kjpaw_psl.1.0.0.UPF: wavefunction(s)  3S 3P renormalized
 
     R & G space division:  proc/nbgrp/npool/nimage =       8
     Subspace diagonalization in iterative solution of the eigenvalue problem:
     a serial algorithm will be used

 
     Parallelization info
     --------------------
     sticks:   dense  smooth     PW     G-vecs:    dense   smooth      PW
     Min          54      54     18                  747      747     149
     Max          55      55     19                  750      750     152
     Sum         433     433    151                 5985     5985    1211
 
     Using Slab Decomposition
 


     bravais-lattice index     =            2
     lattice parameter (alat)  =      10.3013  a.u.
     unit-cell volume          =     273.2864 (a.u.)^3
     number of atoms/cell      =            2
     number of atomic types    =            1
     number of electrons       =         8.00
     number of Kohn-Sham states=            4
     kinetic-energy cutoff     =      30.0000  Ry
     charge density cutoff     =     120.0000  Ry
     scf convergence threshold =      1.0E-06
     mixing beta               =       0.6000
     number of iterations used =            8  plain     mixing
     Exchange-correlation= SLA  PW   PBX  PBC
                           (   1   4   3   4   0   0   0)

     celldm(1)=  10.301315  celldm(2)=   0.000000  celldm(3)=   0.000000
     celldm(4)=   0.000000  celldm(5)=   0.000000  celldm(6)=   0.000000

     crystal axes: (cart. coord. in units of alat)
               a(1) = (  -0.500000   0.000000   0.500000 )  
               a(2) = (   0.000000   0.500000   0.500000 )  
               a(3) = (  -0.500000   0.500000   0.000000 )  

     reciprocal axes: (cart. coord. in units 2 pi/alat)
               b(1) = ( -1.000000 -1.000000  1.000000 )  
               b(2) = (  1.000000  1.000000  1.000000 )  
               b(3) = ( -1.000000  1.000000 -1.000000 )  


     PseudoPot. # 1 for Si read from file:
     /home/karan/pseudos/Si.pbe-n-kjpaw_psl.1.0.0.UPF
     MD5 check sum: c39c59da582df4a0d9f10159256ea34e
     Pseudo is Projector augmented-wave + core cor, Zval =  4.0
     Generated using &quot;atomic&quot; code by A. Dal Corso  v.6.3
     Shape of augmentation charge: PSQ
     Using radial grid of 1141 points,  6 beta functions with: 
                l(1) =   0
                l(2) =   0
                l(3) =   1
                l(4) =   1
                l(5) =   2
                l(6) =   2
     Q(r) pseudized with 0 coefficients 


     atomic species   valence    mass     pseudopotential
        Si             4.00    28.08600     Si( 1.00)

     48 Sym. Ops., with inversion, found (24 have fractional translation)



   Cartesian axes

     site n.     atom                  positions (alat units)
         1           Si  tau(   1) = (   0.0000000   0.0000000   0.0000000  )
         2           Si  tau(   2) = (   0.2500000   0.2500000   0.2500000  )

     number of k points=    28
                       cart. coord. in units 2pi/alat
        k(    1) = (  -0.0833333   0.0833333   0.0833333), wk =   0.0185185
        k(    2) = (  -0.2500000   0.2500000  -0.0833333), wk =   0.0555556
        k(    3) = (  -0.4166667   0.4166667  -0.2500000), wk =   0.0555556
        k(    4) = (   0.4166667  -0.4166667   0.5833333), wk =   0.0555556
        k(    5) = (   0.2500000  -0.2500000   0.4166667), wk =   0.0555556
        k(    6) = (   0.0833333  -0.0833333   0.2500000), wk =   0.0555556
        k(    7) = (  -0.0833333   0.4166667   0.0833333), wk =   0.0555556
        k(    8) = (  -0.2500000   0.5833333  -0.0833333), wk =   0.1111111
        k(    9) = (   0.5833333  -0.2500000   0.7500000), wk =   0.1111111
        k(   10) = (   0.4166667  -0.0833333   0.5833333), wk =   0.1111111
        k(   11) = (   0.2500000   0.0833333   0.4166667), wk =   0.1111111
        k(   12) = (  -0.0833333   0.7500000   0.0833333), wk =   0.0555556
        k(   13) = (   0.7500000  -0.0833333   0.9166667), wk =   0.1111111
        k(   14) = (   0.5833333   0.0833333   0.7500000), wk =   0.1111111
        k(   15) = (   0.4166667   0.2500000   0.5833333), wk =   0.1111111
        k(   16) = (  -0.0833333  -0.9166667   0.0833333), wk =   0.0555556
        k(   17) = (  -0.2500000  -0.7500000  -0.0833333), wk =   0.1111111
        k(   18) = (  -0.0833333  -0.5833333   0.0833333), wk =   0.0555556
        k(   19) = (  -0.2500000   0.2500000   0.2500000), wk =   0.0185185
        k(   20) = (  -0.4166667   0.4166667   0.0833333), wk =   0.0555556
        k(   21) = (   0.4166667  -0.4166667   0.9166667), wk =   0.0555556
        k(   22) = (   0.2500000  -0.2500000   0.7500000), wk =   0.0555556
        k(   23) = (  -0.2500000   0.5833333   0.2500000), wk =   0.0555556
        k(   24) = (   0.5833333  -0.2500000   1.0833333), wk =   0.1111111
        k(   25) = (   0.4166667  -0.0833333   0.9166667), wk =   0.1111111
        k(   26) = (  -0.2500000  -1.0833333   0.2500000), wk =   0.0555556
        k(   27) = (  -0.4166667   0.4166667   0.4166667), wk =   0.0185185
        k(   28) = (   0.4166667  -0.4166667   1.2500000), wk =   0.0555556

     Dense  grid:     5985 G-vectors     FFT dimensions: (  32,  32,  32)

     Estimated max dynamical RAM per process >       3.84 MB

     Estimated total dynamical RAM >      30.72 MB

     Check: negative core charge=   -0.000004

     Initial potential from superposition of free atoms

     starting charge       7.9989, renormalised to       8.0000
     Starting wfcs are    8 randomized atomic wfcs
     Checking if some PAW data can be deallocated... 

     total cpu time spent up to now is        0.2 secs

     Self-consistent Calculation

     iteration #  1     ecut=    30.00 Ry     beta= 0.60
     Davidson diagonalization with overlap
     ethr =  1.00E-02,  avg # of iterations =  2.0

     Threshold (ethr) on eigenvalues was too large:
     Diagonalizing with lowered threshold

     Davidson diagonalization with overlap
     ethr =  6.11E-04,  avg # of iterations =  1.5

     total cpu time spent up to now is        0.3 secs

     total energy              =     -93.45164095 Ry
     estimated scf accuracy    <       0.05292414 Ry

     iteration #  2     ecut=    30.00 Ry     beta= 0.60
     Davidson diagonalization with overlap
     ethr =  6.62E-04,  avg # of iterations =  1.0

     total cpu time spent up to now is        0.4 secs

     total energy              =     -93.45233693 Ry
     estimated scf accuracy    <       0.00606031 Ry

     iteration #  3     ecut=    30.00 Ry     beta= 0.60
     Davidson diagonalization with overlap
     ethr =  7.58E-05,  avg # of iterations =  2.1

     total cpu time spent up to now is        0.5 secs

     total energy              =     -93.45323669 Ry
     estimated scf accuracy    <       0.00013647 Ry

     iteration #  4     ecut=    30.00 Ry     beta= 0.60
     Davidson diagonalization with overlap
     ethr =  1.71E-06,  avg # of iterations =  4.5

     total cpu time spent up to now is        0.6 secs

     total energy              =     -93.45335535 Ry
     estimated scf accuracy    <       0.00001117 Ry

     iteration #  5     ecut=    30.00 Ry     beta= 0.60
     Davidson diagonalization with overlap
     ethr =  1.40E-07,  avg # of iterations =  3.9

     total cpu time spent up to now is        0.7 secs

     End of self-consistent calculation

          k =-0.0833 0.0833 0.0833 (   743 PWs)   bands (ev):

    -5.7088   5.2276   5.9452   5.9452

          k =-0.2500 0.2500-0.0833 (   763 PWs)   bands (ev):

    -5.2353   3.1521   4.7155   5.7355

          k =-0.4167 0.4167-0.2500 (   764 PWs)   bands (ev):

    -4.1510   0.4045   4.2521   5.1015

          k = 0.4167-0.4167 0.5833 (   763 PWs)   bands (ev):

    -3.4590  -0.7314   4.3175   4.7230

          k = 0.2500-0.2500 0.4167 (   769 PWs)   bands (ev):

    -4.5596   1.2461   4.7830   4.8142

          k = 0.0833-0.0833 0.2500 (   761 PWs)   bands (ev):

    -5.4698   4.1596   5.3025   5.4866

          k =-0.0833 0.4167 0.0833 (   762 PWs)   bands (ev):

    -4.9957   2.9616   4.5600   4.5763

          k =-0.2500 0.5833-0.0833 (   761 PWs)   bands (ev):

    -4.0916   1.1299   3.2496   4.1913

          k = 0.5833-0.2500 0.7500 (   757 PWs)   bands (ev):

    -2.9845  -0.6081   2.6496   3.9658

          k = 0.4167-0.0833 0.5833 (   762 PWs)   bands (ev):

    -3.7002   0.4416   2.6100   4.4491

          k = 0.2500 0.0833 0.4167 (   764 PWs)   bands (ev):

    -4.7719   2.1303   3.9426   5.1131

          k =-0.0833 0.7500 0.0833 (   761 PWs)   bands (ev):

    -3.3845   0.3041   3.2151   3.5528

          k = 0.7500-0.0833 0.9167 (   751 PWs)   bands (ev):

    -2.1970  -1.0287   2.3790   3.1490

          k = 0.5833 0.0833 0.7500 (   749 PWs)   bands (ev):

    -2.5671  -0.6925   1.8981   3.6913

          k = 0.4167 0.2500 0.5833 (   762 PWs)   bands (ev):

    -3.5896  -0.2352   3.5442   4.5463

          k =-0.0833-0.9167 0.0833 (   759 PWs)   bands (ev):

    -2.2875  -1.0364   2.9472   3.3386

          k =-0.2500-0.7500-0.0833 (   760 PWs)   bands (ev):

    -3.2175   0.0824   2.6977   3.4876

          k =-0.0833-0.5833 0.0833 (   757 PWs)   bands (ev):

    -4.2956   1.6639   3.7564   3.9729

          k =-0.2500 0.2500 0.2500 (   757 PWs)   bands (ev):

    -5.0074   2.1787   5.3342   5.3342

          k =-0.4167 0.4167 0.0833 (   755 PWs)   bands (ev):

    -4.3330   1.2465   3.2136   5.1654

          k = 0.4167-0.4167 0.9167 (   761 PWs)   bands (ev):

    -3.1628  -0.1889   2.1138   4.3834

          k = 0.2500-0.2500 0.7500 (   758 PWs)   bands (ev):

    -3.1107  -0.2679   2.5889   3.9042

          k =-0.2500 0.5833 0.2500 (   765 PWs)   bands (ev):

    -3.9121   0.4439   3.6734   4.2753

          k = 0.5833-0.2500 1.0833 (   755 PWs)   bands (ev):

    -2.9172  -0.3034   2.2136   3.4857

          k = 0.4167-0.0833 0.9167 (   750 PWs)   bands (ev):

    -2.0920  -1.0364   2.0518   2.8226

          k =-0.2500-1.0833 0.2500 (   752 PWs)   bands (ev):

    -2.3014  -0.9413   1.9263   3.7106

          k =-0.4167 0.4167 0.4167 (   763 PWs)   bands (ev):

    -3.8248  -0.3337   4.9472   4.9472

          k = 0.4167-0.4167 1.2500 (   757 PWs)   bands (ev):

    -3.2247  -0.6356   3.1212   4.5095

     highest occupied level (ev):     5.9452

!    total energy              =     -93.45336091 Ry
     total all-electron energy =     -1160.145091 Ry
     estimated scf accuracy    <       0.00000034 Ry

     The total energy is the sum of the following terms:
     one-electron contribution =       5.64941184 Ry
     hartree contribution      =       1.11027561 Ry
     xc contribution           =     -12.29464915 Ry
     ewald contribution        =     -16.73354757 Ry
     one-center paw contrib.   =     -71.18485165 Ry

     convergence has been achieved in   5 iterations

     Writing all to output data dir ./silicon.save/
 
     init_run     :      0.08s CPU      0.09s WALL (       1 calls)
     electrons    :      0.48s CPU      0.55s WALL (       1 calls)

     Called by init_run:
     wfcinit      :      0.01s CPU      0.01s WALL (       1 calls)
     potinit      :      0.05s CPU      0.05s WALL (       1 calls)
     hinit0       :      0.01s CPU      0.02s WALL (       1 calls)

     Called by electrons:
     c_bands      :      0.18s CPU      0.20s WALL (       6 calls)
     sum_band     :      0.05s CPU      0.05s WALL (       6 calls)
     v_of_rho     :      0.00s CPU      0.01s WALL (       6 calls)
     newd         :      0.01s CPU      0.01s WALL (       6 calls)
     PAW_pot      :      0.28s CPU      0.33s WALL (       6 calls)
     mix_rho      :      0.00s CPU      0.00s WALL (       6 calls)

     Called by c_bands:
     init_us_2    :      0.01s CPU      0.01s WALL (     364 calls)
     init_us_2:cp :      0.01s CPU      0.01s WALL (     364 calls)
     cegterg      :      0.12s CPU      0.13s WALL (     168 calls)

     Called by *egterg:
     cdiaghg      :      0.01s CPU      0.01s WALL (     561 calls)
     h_psi        :      0.10s CPU      0.10s WALL (     617 calls)
     s_psi        :      0.00s CPU      0.00s WALL (     617 calls)
     g_psi        :      0.00s CPU      0.00s WALL (     421 calls)

     Called by h_psi:
     h_psi:calbec :      0.01s CPU      0.01s WALL (     617 calls)
     vloc_psi     :      0.08s CPU      0.09s WALL (     617 calls)
     add_vuspsi   :      0.00s CPU      0.00s WALL (     617 calls)

     General routines
     calbec       :      0.01s CPU      0.01s WALL (     785 calls)
     fft          :      0.00s CPU      0.00s WALL (      67 calls)
     ffts         :      0.00s CPU      0.00s WALL (       6 calls)
     fftw         :      0.09s CPU      0.09s WALL (    5060 calls)
 
     Parallel routines
 
     PWSCF        :      0.63s CPU      0.73s WALL

 
   This run was terminated on:  17:42:23  13Mar2026            

=------------------------------------------------------------------------------=
   JOB DONE.
=------------------------------------------------------------------------------=
