
     Program PWSCF v.7.1 starts on 13Mar2026 at 17:42:17 

     This program is part of the open-source Quantum ESPRESSO suite
     for quantum simulation of materials; please cite
         "P. Giannozzi et al., J. Phys.:Condens. Matter 21 395502 (2009);
         "P. Giannozzi et al., J. Phys.:Condens. Matter 29 465901 (2017);
         "P. Giannozzi et al., J. Chem. Phys. 152 154105 (2020);
          URL http://www.quantum-espresso.org", 
     in publications or presentations arising from this work. More details at
     http://www.quantum-espresso.org/quote

     Parallel version (MPI), running on     8 processors

     MPI processes distributed on     1 nodes
     11522 MiB available memory on the printing compute node when the environment starts
 
     Reading input from scf.in

     Current dimensions of program PWSCF are:
     Max number of different atomic species (ntypx) = 10
     Max number of k-points (npk) =  40000
     Max angular momentum in pseudopotentials (lmaxx) =  4
     file Si.pbe-n-kjpaw_psl.1.0.0.UPF: wavefunction(s)  3S 3P renormalized
 
     R & G space division:  proc/nbgrp/npool/nimage =       8
     Subspace diagonalization in iterative solution of the eigenvalue problem:
     a serial algorithm will be used

 
     Parallelization info
     --------------------
     sticks:   dense  smooth     PW     G-vecs:    dense   smooth      PW
     Min          52      52     17                  719      719     132
     Max          53      53     18                  723      723     134
     Sum         421     421    139                 5769     5769    1067
 
     Using Slab Decomposition
 


     bravais-lattice index     =            2
     lattice parameter (alat)  =      10.0943  a.u.
     unit-cell volume          =     257.1358 (a.u.)^3
     number of atoms/cell      =            2
     number of atomic types    =            1
     number of electrons       =         8.00
     number of Kohn-Sham states=            4
     kinetic-energy cutoff     =      30.0000  Ry
     charge density cutoff     =     120.0000  Ry
     scf convergence threshold =      1.0E-06
     mixing beta               =       0.6000
     number of iterations used =            8  plain     mixing
     Exchange-correlation= SLA  PW   PBX  PBC
                           (   1   4   3   4   0   0   0)

     celldm(1)=  10.094253  celldm(2)=   0.000000  celldm(3)=   0.000000
     celldm(4)=   0.000000  celldm(5)=   0.000000  celldm(6)=   0.000000

     crystal axes: (cart. coord. in units of alat)
               a(1) = (  -0.500000   0.000000   0.500000 )  
               a(2) = (   0.000000   0.500000   0.500000 )  
               a(3) = (  -0.500000   0.500000   0.000000 )  

     reciprocal axes: (cart. coord. in units 2 pi/alat)
               b(1) = ( -1.000000 -1.000000  1.000000 )  
               b(2) = (  1.000000  1.000000  1.000000 )  
               b(3) = ( -1.000000  1.000000 -1.000000 )  


     PseudoPot. # 1 for Si read from file:
     /home/karan/pseudos/Si.pbe-n-kjpaw_psl.1.0.0.UPF
     MD5 check sum: c39c59da582df4a0d9f10159256ea34e
     Pseudo is Projector augmented-wave + core cor, Zval =  4.0
     Generated using &quot;atomic&quot; code by A. Dal Corso  v.6.3
     Shape of augmentation charge: PSQ
     Using radial grid of 1141 points,  6 beta functions with: 
                l(1) =   0
                l(2) =   0
                l(3) =   1
                l(4) =   1
                l(5) =   2
                l(6) =   2
     Q(r) pseudized with 0 coefficients 


     atomic species   valence    mass     pseudopotential
        Si             4.00    28.08600     Si( 1.00)

     48 Sym. Ops., with inversion, found (24 have fractional translation)



   Cartesian axes

     site n.     atom                  positions (alat units)
         1           Si  tau(   1) = (   0.0000000   0.0000000   0.0000000  )
         2           Si  tau(   2) = (   0.2500000   0.2500000   0.2500000  )

     number of k points=    28
                       cart. coord. in units 2pi/alat
        k(    1) = (  -0.0833333   0.0833333   0.0833333), wk =   0.0185185
        k(    2) = (  -0.2500000   0.2500000  -0.0833333), wk =   0.0555556
        k(    3) = (  -0.4166667   0.4166667  -0.2500000), wk =   0.0555556
        k(    4) = (   0.4166667  -0.4166667   0.5833333), wk =   0.0555556
        k(    5) = (   0.2500000  -0.2500000   0.4166667), wk =   0.0555556
        k(    6) = (   0.0833333  -0.0833333   0.2500000), wk =   0.0555556
        k(    7) = (  -0.0833333   0.4166667   0.0833333), wk =   0.0555556
        k(    8) = (  -0.2500000   0.5833333  -0.0833333), wk =   0.1111111
        k(    9) = (   0.5833333  -0.2500000   0.7500000), wk =   0.1111111
        k(   10) = (   0.4166667  -0.0833333   0.5833333), wk =   0.1111111
        k(   11) = (   0.2500000   0.0833333   0.4166667), wk =   0.1111111
        k(   12) = (  -0.0833333   0.7500000   0.0833333), wk =   0.0555556
        k(   13) = (   0.7500000  -0.0833333   0.9166667), wk =   0.1111111
        k(   14) = (   0.5833333   0.0833333   0.7500000), wk =   0.1111111
        k(   15) = (   0.4166667   0.2500000   0.5833333), wk =   0.1111111
        k(   16) = (  -0.0833333  -0.9166667   0.0833333), wk =   0.0555556
        k(   17) = (  -0.2500000  -0.7500000  -0.0833333), wk =   0.1111111
        k(   18) = (  -0.0833333  -0.5833333   0.0833333), wk =   0.0555556
        k(   19) = (  -0.2500000   0.2500000   0.2500000), wk =   0.0185185
        k(   20) = (  -0.4166667   0.4166667   0.0833333), wk =   0.0555556
        k(   21) = (   0.4166667  -0.4166667   0.9166667), wk =   0.0555556
        k(   22) = (   0.2500000  -0.2500000   0.7500000), wk =   0.0555556
        k(   23) = (  -0.2500000   0.5833333   0.2500000), wk =   0.0555556
        k(   24) = (   0.5833333  -0.2500000   1.0833333), wk =   0.1111111
        k(   25) = (   0.4166667  -0.0833333   0.9166667), wk =   0.1111111
        k(   26) = (  -0.2500000  -1.0833333   0.2500000), wk =   0.0555556
        k(   27) = (  -0.4166667   0.4166667   0.4166667), wk =   0.0185185
        k(   28) = (   0.4166667  -0.4166667   1.2500000), wk =   0.0555556

     Dense  grid:     5769 G-vectors     FFT dimensions: (  32,  32,  32)

     Estimated max dynamical RAM per process >       3.73 MB

     Estimated total dynamical RAM >      29.86 MB

     Check: negative core charge=   -0.000003

     Initial potential from superposition of free atoms

     starting charge       7.9989, renormalised to       8.0000
     Starting wfcs are    8 randomized atomic wfcs
     Checking if some PAW data can be deallocated... 

     total cpu time spent up to now is        0.2 secs

     Self-consistent Calculation

     iteration #  1     ecut=    30.00 Ry     beta= 0.60
     Davidson diagonalization with overlap
     ethr =  1.00E-02,  avg # of iterations =  2.0

     Threshold (ethr) on eigenvalues was too large:
     Diagonalizing with lowered threshold

     Davidson diagonalization with overlap
     ethr =  6.78E-04,  avg # of iterations =  1.3

     total cpu time spent up to now is        0.3 secs

     total energy              =     -93.44684863 Ry
     estimated scf accuracy    <       0.05859377 Ry

     iteration #  2     ecut=    30.00 Ry     beta= 0.60
     Davidson diagonalization with overlap
     ethr =  7.32E-04,  avg # of iterations =  1.0

     total cpu time spent up to now is        0.4 secs

     total energy              =     -93.44775682 Ry
     estimated scf accuracy    <       0.00634372 Ry

     iteration #  3     ecut=    30.00 Ry     beta= 0.60
     Davidson diagonalization with overlap
     ethr =  7.93E-05,  avg # of iterations =  2.0

     total cpu time spent up to now is        0.5 secs

     total energy              =     -93.44887399 Ry
     estimated scf accuracy    <       0.00016939 Ry

     iteration #  4     ecut=    30.00 Ry     beta= 0.60
     Davidson diagonalization with overlap
     ethr =  2.12E-06,  avg # of iterations =  4.2

     total cpu time spent up to now is        0.6 secs

     total energy              =     -93.44898186 Ry
     estimated scf accuracy    <       0.00002340 Ry

     iteration #  5     ecut=    30.00 Ry     beta= 0.60
     Davidson diagonalization with overlap
     ethr =  2.93E-07,  avg # of iterations =  3.6

     total cpu time spent up to now is        0.7 secs

     End of self-consistent calculation

          k =-0.0833 0.0833 0.0833 (   718 PWs)   bands (ev):

    -5.4814   5.8730   6.5858   6.5858

          k =-0.2500 0.2500-0.0833 (   710 PWs)   bands (ev):

    -4.9821   3.7438   5.2830   6.3748

          k =-0.4167 0.4167-0.2500 (   722 PWs)   bands (ev):

    -3.8308   0.8523   4.8166   5.7075

          k = 0.4167-0.4167 0.5833 (   721 PWs)   bands (ev):

    -3.0799  -0.3629   4.8979   5.3039

          k = 0.2500-0.2500 0.4167 (   718 PWs)   bands (ev):

    -4.2667   1.7411   5.3576   5.4219

          k = 0.0833-0.0833 0.2500 (   705 PWs)   bands (ev):

    -5.2295   4.7947   5.8980   6.1208

          k =-0.0833 0.4167 0.0833 (   706 PWs)   bands (ev):

    -4.7298   3.5944   5.1301   5.1347

          k =-0.2500 0.5833-0.0833 (   714 PWs)   bands (ev):

    -3.7735   1.6872   3.7328   4.7283

          k = 0.5833-0.2500 0.7500 (   714 PWs)   bands (ev):

    -2.5820  -0.1821   3.1207   4.4825

          k = 0.4167-0.0833 0.5833 (   711 PWs)   bands (ev):

    -3.3550   0.9510   3.0537   5.0033

          k = 0.2500 0.0833 0.4167 (   712 PWs)   bands (ev):

    -4.4926   2.6988   4.4681   5.7202

          k =-0.0833 0.7500 0.0833 (   713 PWs)   bands (ev):

    -3.0296   0.8600   3.6847   4.0539

          k = 0.7500-0.0833 0.9167 (   718 PWs)   bands (ev):

    -1.7671  -0.5384   2.7799   3.6134

          k = 0.5833 0.0833 0.7500 (   712 PWs)   bands (ev):

    -2.1421  -0.2169   2.2759   4.1908

          k = 0.4167 0.2500 0.5833 (   715 PWs)   bands (ev):

    -3.2301   0.1863   4.0798   5.1105

          k =-0.0833-0.9167 0.0833 (   714 PWs)   bands (ev):

    -1.8709  -0.5505   3.3999   3.8293

          k =-0.2500-0.7500-0.0833 (   714 PWs)   bands (ev):

    -2.8485   0.6202   3.1325   3.9707

          k =-0.0833-0.5833 0.0833 (   714 PWs)   bands (ev):

    -3.9913   2.2744   4.2654   4.4950

          k =-0.2500 0.2500 0.2500 (   715 PWs)   bands (ev):

    -4.7409   2.7100   5.9446   5.9446

          k =-0.4167 0.4167 0.0833 (   720 PWs)   bands (ev):

    -4.0271   1.7759   3.6964   5.7724

          k = 0.4167-0.4167 0.9167 (   708 PWs)   bands (ev):

    -2.7791   0.2922   2.5197   4.9383

          k = 0.2500-0.2500 0.7500 (   711 PWs)   bands (ev):

    -2.7275   0.2107   3.0359   4.4275

          k =-0.2500 0.5833 0.2500 (   713 PWs)   bands (ev):

    -3.5797   0.9216   4.2170   4.8196

          k = 0.5833-0.2500 1.0833 (   715 PWs)   bands (ev):

    -2.5220   0.1991   2.6210   3.9612

          k = 0.4167-0.0833 0.9167 (   716 PWs)   bands (ev):

    -1.6444  -0.5464   2.4274   3.2492

          k =-0.2500-1.0833 0.2500 (   713 PWs)   bands (ev):

    -1.8638  -0.4652   2.2947   4.2233

          k =-0.4167 0.4167 0.4167 (   721 PWs)   bands (ev):

    -3.4773   0.0606   5.5447   5.5447

          k = 0.4167-0.4167 1.2500 (   710 PWs)   bands (ev):

    -2.8339  -0.2394   3.6287   5.0740

     highest occupied level (ev):     6.5858

!    total energy              =     -93.44899093 Ry
     total all-electron energy =     -1160.140721 Ry
     estimated scf accuracy    <       0.00000070 Ry

     The total energy is the sum of the following terms:
     one-electron contribution =       6.13645142 Ry
     hartree contribution      =       1.05664233 Ry
     xc contribution           =     -12.36996969 Ry
     ewald contribution        =     -17.07679982 Ry
     one-center paw contrib.   =     -71.19531518 Ry

     convergence has been achieved in   5 iterations

     Writing all to output data dir ./silicon.save/
 
     init_run     :      0.09s CPU      0.11s WALL (       1 calls)
     electrons    :      0.49s CPU      0.53s WALL (       1 calls)

     Called by init_run:
     wfcinit      :      0.01s CPU      0.01s WALL (       1 calls)
     potinit      :      0.05s CPU      0.07s WALL (       1 calls)
     hinit0       :      0.02s CPU      0.02s WALL (       1 calls)

     Called by electrons:
     c_bands      :      0.18s CPU      0.18s WALL (       6 calls)
     sum_band     :      0.04s CPU      0.05s WALL (       6 calls)
     v_of_rho     :      0.00s CPU      0.01s WALL (       6 calls)
     newd         :      0.01s CPU      0.02s WALL (       6 calls)
     PAW_pot      :      0.30s CPU      0.34s WALL (       6 calls)
     mix_rho      :      0.00s CPU      0.00s WALL (       6 calls)

     Called by c_bands:
     init_us_2    :      0.01s CPU      0.01s WALL (     364 calls)
     init_us_2:cp :      0.01s CPU      0.01s WALL (     364 calls)
     cegterg      :      0.11s CPU      0.11s WALL (     168 calls)

     Called by *egterg:
     cdiaghg      :      0.01s CPU      0.01s WALL (     535 calls)
     h_psi        :      0.09s CPU      0.09s WALL (     591 calls)
     s_psi        :      0.00s CPU      0.00s WALL (     591 calls)
     g_psi        :      0.00s CPU      0.00s WALL (     395 calls)

     Called by h_psi:
     h_psi:calbec :      0.01s CPU      0.01s WALL (     591 calls)
     vloc_psi     :      0.08s CPU      0.08s WALL (     591 calls)
     add_vuspsi   :      0.00s CPU      0.00s WALL (     591 calls)

     General routines
     calbec       :      0.01s CPU      0.01s WALL (     759 calls)
     fft          :      0.00s CPU      0.00s WALL (      67 calls)
     ffts         :      0.00s CPU      0.00s WALL (       6 calls)
     fftw         :      0.08s CPU      0.08s WALL (    4968 calls)
 
     Parallel routines
 
     PWSCF        :      0.65s CPU      0.73s WALL

 
   This run was terminated on:  17:42:17  13Mar2026            

=------------------------------------------------------------------------------=
   JOB DONE.
=------------------------------------------------------------------------------=
