
     Program PWSCF v.7.1 starts on 13Mar2026 at 17:42:14 

     This program is part of the open-source Quantum ESPRESSO suite
     for quantum simulation of materials; please cite
         "P. Giannozzi et al., J. Phys.:Condens. Matter 21 395502 (2009);
         "P. Giannozzi et al., J. Phys.:Condens. Matter 29 465901 (2017);
         "P. Giannozzi et al., J. Chem. Phys. 152 154105 (2020);
          URL http://www.quantum-espresso.org", 
     in publications or presentations arising from this work. More details at
     http://www.quantum-espresso.org/quote

     Parallel version (MPI), running on     8 processors

     MPI processes distributed on     1 nodes
     11528 MiB available memory on the printing compute node when the environment starts
 
     Reading input from scf.in

     Current dimensions of program PWSCF are:
     Max number of different atomic species (ntypx) = 10
     Max number of k-points (npk) =  40000
     Max angular momentum in pseudopotentials (lmaxx) =  4
     file Si.pbe-n-kjpaw_psl.1.0.0.UPF: wavefunction(s)  3S 3P renormalized
 
     R & G space division:  proc/nbgrp/npool/nimage =       8
     Subspace diagonalization in iterative solution of the eigenvalue problem:
     a serial algorithm will be used

 
     Parallelization info
     --------------------
     sticks:   dense  smooth     PW     G-vecs:    dense   smooth      PW
     Min          52      52     17                  696      696     132
     Max          53      53     18                  698      698     134
     Sum         421     421    139                 5577     5577    1067
 
     Using Slab Decomposition
 


     bravais-lattice index     =            2
     lattice parameter (alat)  =       9.9907  a.u.
     unit-cell volume          =     249.3048 (a.u.)^3
     number of atoms/cell      =            2
     number of atomic types    =            1
     number of electrons       =         8.00
     number of Kohn-Sham states=            4
     kinetic-energy cutoff     =      30.0000  Ry
     charge density cutoff     =     120.0000  Ry
     scf convergence threshold =      1.0E-06
     mixing beta               =       0.6000
     number of iterations used =            8  plain     mixing
     Exchange-correlation= SLA  PW   PBX  PBC
                           (   1   4   3   4   0   0   0)

     celldm(1)=   9.990722  celldm(2)=   0.000000  celldm(3)=   0.000000
     celldm(4)=   0.000000  celldm(5)=   0.000000  celldm(6)=   0.000000

     crystal axes: (cart. coord. in units of alat)
               a(1) = (  -0.500000   0.000000   0.500000 )  
               a(2) = (   0.000000   0.500000   0.500000 )  
               a(3) = (  -0.500000   0.500000   0.000000 )  

     reciprocal axes: (cart. coord. in units 2 pi/alat)
               b(1) = ( -1.000000 -1.000000  1.000000 )  
               b(2) = (  1.000000  1.000000  1.000000 )  
               b(3) = ( -1.000000  1.000000 -1.000000 )  


     PseudoPot. # 1 for Si read from file:
     /home/karan/pseudos/Si.pbe-n-kjpaw_psl.1.0.0.UPF
     MD5 check sum: c39c59da582df4a0d9f10159256ea34e
     Pseudo is Projector augmented-wave + core cor, Zval =  4.0
     Generated using &quot;atomic&quot; code by A. Dal Corso  v.6.3
     Shape of augmentation charge: PSQ
     Using radial grid of 1141 points,  6 beta functions with: 
                l(1) =   0
                l(2) =   0
                l(3) =   1
                l(4) =   1
                l(5) =   2
                l(6) =   2
     Q(r) pseudized with 0 coefficients 


     atomic species   valence    mass     pseudopotential
        Si             4.00    28.08600     Si( 1.00)

     48 Sym. Ops., with inversion, found (24 have fractional translation)



   Cartesian axes

     site n.     atom                  positions (alat units)
         1           Si  tau(   1) = (   0.0000000   0.0000000   0.0000000  )
         2           Si  tau(   2) = (   0.2500000   0.2500000   0.2500000  )

     number of k points=    28
                       cart. coord. in units 2pi/alat
        k(    1) = (  -0.0833333   0.0833333   0.0833333), wk =   0.0185185
        k(    2) = (  -0.2500000   0.2500000  -0.0833333), wk =   0.0555556
        k(    3) = (  -0.4166667   0.4166667  -0.2500000), wk =   0.0555556
        k(    4) = (   0.4166667  -0.4166667   0.5833333), wk =   0.0555556
        k(    5) = (   0.2500000  -0.2500000   0.4166667), wk =   0.0555556
        k(    6) = (   0.0833333  -0.0833333   0.2500000), wk =   0.0555556
        k(    7) = (  -0.0833333   0.4166667   0.0833333), wk =   0.0555556
        k(    8) = (  -0.2500000   0.5833333  -0.0833333), wk =   0.1111111
        k(    9) = (   0.5833333  -0.2500000   0.7500000), wk =   0.1111111
        k(   10) = (   0.4166667  -0.0833333   0.5833333), wk =   0.1111111
        k(   11) = (   0.2500000   0.0833333   0.4166667), wk =   0.1111111
        k(   12) = (  -0.0833333   0.7500000   0.0833333), wk =   0.0555556
        k(   13) = (   0.7500000  -0.0833333   0.9166667), wk =   0.1111111
        k(   14) = (   0.5833333   0.0833333   0.7500000), wk =   0.1111111
        k(   15) = (   0.4166667   0.2500000   0.5833333), wk =   0.1111111
        k(   16) = (  -0.0833333  -0.9166667   0.0833333), wk =   0.0555556
        k(   17) = (  -0.2500000  -0.7500000  -0.0833333), wk =   0.1111111
        k(   18) = (  -0.0833333  -0.5833333   0.0833333), wk =   0.0555556
        k(   19) = (  -0.2500000   0.2500000   0.2500000), wk =   0.0185185
        k(   20) = (  -0.4166667   0.4166667   0.0833333), wk =   0.0555556
        k(   21) = (   0.4166667  -0.4166667   0.9166667), wk =   0.0555556
        k(   22) = (   0.2500000  -0.2500000   0.7500000), wk =   0.0555556
        k(   23) = (  -0.2500000   0.5833333   0.2500000), wk =   0.0555556
        k(   24) = (   0.5833333  -0.2500000   1.0833333), wk =   0.1111111
        k(   25) = (   0.4166667  -0.0833333   0.9166667), wk =   0.1111111
        k(   26) = (  -0.2500000  -1.0833333   0.2500000), wk =   0.0555556
        k(   27) = (  -0.4166667   0.4166667   0.4166667), wk =   0.0185185
        k(   28) = (   0.4166667  -0.4166667   1.2500000), wk =   0.0555556

     Dense  grid:     5577 G-vectors     FFT dimensions: (  32,  32,  32)

     Estimated max dynamical RAM per process >       3.65 MB

     Estimated total dynamical RAM >      29.23 MB

     Check: negative core charge=   -0.000003

     Initial potential from superposition of free atoms

     starting charge       7.9989, renormalised to       8.0000
     Starting wfcs are    8 randomized atomic wfcs
     Checking if some PAW data can be deallocated... 

     total cpu time spent up to now is        0.2 secs

     Self-consistent Calculation

     iteration #  1     ecut=    30.00 Ry     beta= 0.60
     Davidson diagonalization with overlap
     ethr =  1.00E-02,  avg # of iterations =  2.0

     Threshold (ethr) on eigenvalues was too large:
     Diagonalizing with lowered threshold

     Davidson diagonalization with overlap
     ethr =  7.11E-04,  avg # of iterations =  1.2

     total cpu time spent up to now is        0.3 secs

     total energy              =     -93.44165567 Ry
     estimated scf accuracy    <       0.06145682 Ry

     iteration #  2     ecut=    30.00 Ry     beta= 0.60
     Davidson diagonalization with overlap
     ethr =  7.68E-04,  avg # of iterations =  1.0

     total cpu time spent up to now is        0.4 secs

     total energy              =     -93.44269304 Ry
     estimated scf accuracy    <       0.00649464 Ry

     iteration #  3     ecut=    30.00 Ry     beta= 0.60
     Davidson diagonalization with overlap
     ethr =  8.12E-05,  avg # of iterations =  2.1

     total cpu time spent up to now is        0.6 secs

     total energy              =     -93.44394251 Ry
     estimated scf accuracy    <       0.00018926 Ry

     iteration #  4     ecut=    30.00 Ry     beta= 0.60
     Davidson diagonalization with overlap
     ethr =  2.37E-06,  avg # of iterations =  4.0

     total cpu time spent up to now is        0.7 secs

     total energy              =     -93.44404554 Ry
     estimated scf accuracy    <       0.00003569 Ry

     iteration #  5     ecut=    30.00 Ry     beta= 0.60
     Davidson diagonalization with overlap
     ethr =  4.46E-07,  avg # of iterations =  2.9

     total cpu time spent up to now is        0.8 secs

     End of self-consistent calculation

          k =-0.0833 0.0833 0.0833 (   697 PWs)   bands (ev):

    -5.3608   6.2105   6.9249   6.9249

          k =-0.2500 0.2500-0.0833 (   682 PWs)   bands (ev):

    -4.8479   4.0520   5.5837   6.7138

          k =-0.4167 0.4167-0.2500 (   689 PWs)   bands (ev):

    -3.6616   1.0864   5.1160   6.0293

          k = 0.4167-0.4167 0.5833 (   691 PWs)   bands (ev):

    -2.8790  -0.1711   5.2061   5.6123

          k = 0.2500-0.2500 0.4167 (   691 PWs)   bands (ev):

    -4.1118   1.9994   5.6621   5.7446

          k = 0.0833-0.0833 0.2500 (   684 PWs)   bands (ev):

    -5.1022   5.1249   6.2131   6.4574

          k =-0.0833 0.4167 0.0833 (   687 PWs)   bands (ev):

    -4.5890   3.9238   5.4233   5.4410

          k =-0.2500 0.5833-0.0833 (   688 PWs)   bands (ev):

    -3.6056   1.9785   3.9901   5.0130

          k = 0.5833-0.2500 0.7500 (   692 PWs)   bands (ev):

    -2.3689   0.0390   3.3727   4.7561

          k = 0.4167-0.0833 0.5833 (   690 PWs)   bands (ev):

    -3.1727   1.2169   3.2906   5.2971

          k = 0.2500 0.0833 0.4167 (   687 PWs)   bands (ev):

    -4.3449   2.9949   4.7473   6.0423

          k =-0.0833 0.7500 0.0833 (   688 PWs)   bands (ev):

    -2.8424   1.1524   3.9336   4.3200

          k = 0.7500-0.0833 0.9167 (   695 PWs)   bands (ev):

    -1.5404  -0.2800   2.9921   3.8595

          k = 0.5833 0.0833 0.7500 (   696 PWs)   bands (ev):

    -1.9172   0.0320   2.4771   4.4555

          k = 0.4167 0.2500 0.5833 (   690 PWs)   bands (ev):

    -3.0401   0.4060   4.3648   5.4096

          k =-0.0833-0.9167 0.0833 (   694 PWs)   bands (ev):

    -1.6515  -0.2947   3.6400   4.0899

          k =-0.2500-0.7500-0.0833 (   690 PWs)   bands (ev):

    -2.6538   0.9029   3.3636   4.2264

          k =-0.0833-0.5833 0.0833 (   690 PWs)   bands (ev):

    -3.8305   2.5946   4.5358   4.7719

          k =-0.2500 0.2500 0.2500 (   691 PWs)   bands (ev):

    -4.5998   2.9875   6.2681   6.2681

          k =-0.4167 0.4167 0.0833 (   686 PWs)   bands (ev):

    -3.8655   2.0519   3.9535   6.0945

          k = 0.4167-0.4167 0.9167 (   689 PWs)   bands (ev):

    -2.5764   0.5433   2.7364   5.2327

          k = 0.2500-0.2500 0.7500 (   697 PWs)   bands (ev):

    -2.5252   0.4606   3.2745   4.7051

          k =-0.2500 0.5833 0.2500 (   692 PWs)   bands (ev):

    -3.4042   1.1706   4.5067   5.1082

          k = 0.5833-0.2500 1.0833 (   693 PWs)   bands (ev):

    -2.3133   0.4624   2.8383   4.2127

          k = 0.4167-0.0833 0.9167 (   698 PWs)   bands (ev):

    -1.4078  -0.2882   2.6264   3.4747

          k =-0.2500-1.0833 0.2500 (   698 PWs)   bands (ev):

    -1.6324  -0.2151   2.4900   4.4955

          k =-0.4167 0.4167 0.4167 (   682 PWs)   bands (ev):

    -3.2935   0.2667   5.8621   5.8621

          k = 0.4167-0.4167 1.2500 (   694 PWs)   bands (ev):

    -2.6269  -0.0336   3.8991   5.3734

     highest occupied level (ev):     6.9249

!    total energy              =     -93.44405589 Ry
     total all-electron energy =     -1160.135786 Ry
     estimated scf accuracy    <       0.00000082 Ry

     The total energy is the sum of the following terms:
     one-electron contribution =       6.39053463 Ry
     hartree contribution      =       1.02988803 Ry
     xc contribution           =     -12.40951233 Ry
     ewald contribution        =     -17.25376147 Ry
     one-center paw contrib.   =     -71.20120475 Ry

     convergence has been achieved in   5 iterations

     Writing all to output data dir ./silicon.save/
 
     init_run     :      0.09s CPU      0.10s WALL (       1 calls)
     electrons    :      0.51s CPU      0.59s WALL (       1 calls)

     Called by init_run:
     wfcinit      :      0.02s CPU      0.02s WALL (       1 calls)
     potinit      :      0.05s CPU      0.06s WALL (       1 calls)
     hinit0       :      0.01s CPU      0.02s WALL (       1 calls)

     Called by electrons:
     c_bands      :      0.17s CPU      0.19s WALL (       6 calls)
     sum_band     :      0.05s CPU      0.05s WALL (       6 calls)
     v_of_rho     :      0.01s CPU      0.01s WALL (       6 calls)
     newd         :      0.02s CPU      0.03s WALL (       6 calls)
     PAW_pot      :      0.31s CPU      0.37s WALL (       6 calls)
     mix_rho      :      0.00s CPU      0.00s WALL (       6 calls)

     Called by c_bands:
     init_us_2    :      0.01s CPU      0.01s WALL (     364 calls)
     init_us_2:cp :      0.01s CPU      0.01s WALL (     364 calls)
     cegterg      :      0.11s CPU      0.12s WALL (     168 calls)

     Called by *egterg:
     cdiaghg      :      0.01s CPU      0.01s WALL (     513 calls)
     h_psi        :      0.09s CPU      0.10s WALL (     569 calls)
     s_psi        :      0.00s CPU      0.00s WALL (     569 calls)
     g_psi        :      0.00s CPU      0.00s WALL (     373 calls)

     Called by h_psi:
     h_psi:calbec :      0.01s CPU      0.01s WALL (     569 calls)
     vloc_psi     :      0.08s CPU      0.08s WALL (     569 calls)
     add_vuspsi   :      0.00s CPU      0.00s WALL (     569 calls)

     General routines
     calbec       :      0.01s CPU      0.01s WALL (     737 calls)
     fft          :      0.00s CPU      0.00s WALL (      67 calls)
     ffts         :      0.00s CPU      0.00s WALL (       6 calls)
     fftw         :      0.08s CPU      0.08s WALL (    4902 calls)
 
     Parallel routines
 
     PWSCF        :      0.68s CPU      0.78s WALL

 
   This run was terminated on:  17:42:15  13Mar2026            

=------------------------------------------------------------------------------=
   JOB DONE.
=------------------------------------------------------------------------------=
