
     Program PWSCF v.7.1 starts on 13Mar2026 at 17:42:12 

     This program is part of the open-source Quantum ESPRESSO suite
     for quantum simulation of materials; please cite
         "P. Giannozzi et al., J. Phys.:Condens. Matter 21 395502 (2009);
         "P. Giannozzi et al., J. Phys.:Condens. Matter 29 465901 (2017);
         "P. Giannozzi et al., J. Chem. Phys. 152 154105 (2020);
          URL http://www.quantum-espresso.org", 
     in publications or presentations arising from this work. More details at
     http://www.quantum-espresso.org/quote

     Parallel version (MPI), running on     8 processors

     MPI processes distributed on     1 nodes
     11525 MiB available memory on the printing compute node when the environment starts
 
     Reading input from scf.in

     Current dimensions of program PWSCF are:
     Max number of different atomic species (ntypx) = 10
     Max number of k-points (npk) =  40000
     Max angular momentum in pseudopotentials (lmaxx) =  4
     file Si.pbe-n-kjpaw_psl.1.0.0.UPF: wavefunction(s)  3S 3P renormalized
 
     R & G space division:  proc/nbgrp/npool/nimage =       8
     Subspace diagonalization in iterative solution of the eigenvalue problem:
     a serial algorithm will be used

 
     Parallelization info
     --------------------
     sticks:   dense  smooth     PW     G-vecs:    dense   smooth      PW
     Min          52      52     17                  696      696     132
     Max          53      53     18                  698      698     134
     Sum         421     421    139                 5577     5577    1067
 
     Using Slab Decomposition
 


     bravais-lattice index     =            2
     lattice parameter (alat)  =       9.9390  a.u.
     unit-cell volume          =     245.4497 (a.u.)^3
     number of atoms/cell      =            2
     number of atomic types    =            1
     number of electrons       =         8.00
     number of Kohn-Sham states=            4
     kinetic-energy cutoff     =      30.0000  Ry
     charge density cutoff     =     120.0000  Ry
     scf convergence threshold =      1.0E-06
     mixing beta               =       0.6000
     number of iterations used =            8  plain     mixing
     Exchange-correlation= SLA  PW   PBX  PBC
                           (   1   4   3   4   0   0   0)

     celldm(1)=   9.938957  celldm(2)=   0.000000  celldm(3)=   0.000000
     celldm(4)=   0.000000  celldm(5)=   0.000000  celldm(6)=   0.000000

     crystal axes: (cart. coord. in units of alat)
               a(1) = (  -0.500000   0.000000   0.500000 )  
               a(2) = (   0.000000   0.500000   0.500000 )  
               a(3) = (  -0.500000   0.500000   0.000000 )  

     reciprocal axes: (cart. coord. in units 2 pi/alat)
               b(1) = ( -1.000000 -1.000000  1.000000 )  
               b(2) = (  1.000000  1.000000  1.000000 )  
               b(3) = ( -1.000000  1.000000 -1.000000 )  


     PseudoPot. # 1 for Si read from file:
     /home/karan/pseudos/Si.pbe-n-kjpaw_psl.1.0.0.UPF
     MD5 check sum: c39c59da582df4a0d9f10159256ea34e
     Pseudo is Projector augmented-wave + core cor, Zval =  4.0
     Generated using &quot;atomic&quot; code by A. Dal Corso  v.6.3
     Shape of augmentation charge: PSQ
     Using radial grid of 1141 points,  6 beta functions with: 
                l(1) =   0
                l(2) =   0
                l(3) =   1
                l(4) =   1
                l(5) =   2
                l(6) =   2
     Q(r) pseudized with 0 coefficients 


     atomic species   valence    mass     pseudopotential
        Si             4.00    28.08600     Si( 1.00)

     48 Sym. Ops., with inversion, found (24 have fractional translation)



   Cartesian axes

     site n.     atom                  positions (alat units)
         1           Si  tau(   1) = (   0.0000000   0.0000000   0.0000000  )
         2           Si  tau(   2) = (   0.2500000   0.2500000   0.2500000  )

     number of k points=    28
                       cart. coord. in units 2pi/alat
        k(    1) = (  -0.0833333   0.0833333   0.0833333), wk =   0.0185185
        k(    2) = (  -0.2500000   0.2500000  -0.0833333), wk =   0.0555556
        k(    3) = (  -0.4166667   0.4166667  -0.2500000), wk =   0.0555556
        k(    4) = (   0.4166667  -0.4166667   0.5833333), wk =   0.0555556
        k(    5) = (   0.2500000  -0.2500000   0.4166667), wk =   0.0555556
        k(    6) = (   0.0833333  -0.0833333   0.2500000), wk =   0.0555556
        k(    7) = (  -0.0833333   0.4166667   0.0833333), wk =   0.0555556
        k(    8) = (  -0.2500000   0.5833333  -0.0833333), wk =   0.1111111
        k(    9) = (   0.5833333  -0.2500000   0.7500000), wk =   0.1111111
        k(   10) = (   0.4166667  -0.0833333   0.5833333), wk =   0.1111111
        k(   11) = (   0.2500000   0.0833333   0.4166667), wk =   0.1111111
        k(   12) = (  -0.0833333   0.7500000   0.0833333), wk =   0.0555556
        k(   13) = (   0.7500000  -0.0833333   0.9166667), wk =   0.1111111
        k(   14) = (   0.5833333   0.0833333   0.7500000), wk =   0.1111111
        k(   15) = (   0.4166667   0.2500000   0.5833333), wk =   0.1111111
        k(   16) = (  -0.0833333  -0.9166667   0.0833333), wk =   0.0555556
        k(   17) = (  -0.2500000  -0.7500000  -0.0833333), wk =   0.1111111
        k(   18) = (  -0.0833333  -0.5833333   0.0833333), wk =   0.0555556
        k(   19) = (  -0.2500000   0.2500000   0.2500000), wk =   0.0185185
        k(   20) = (  -0.4166667   0.4166667   0.0833333), wk =   0.0555556
        k(   21) = (   0.4166667  -0.4166667   0.9166667), wk =   0.0555556
        k(   22) = (   0.2500000  -0.2500000   0.7500000), wk =   0.0555556
        k(   23) = (  -0.2500000   0.5833333   0.2500000), wk =   0.0555556
        k(   24) = (   0.5833333  -0.2500000   1.0833333), wk =   0.1111111
        k(   25) = (   0.4166667  -0.0833333   0.9166667), wk =   0.1111111
        k(   26) = (  -0.2500000  -1.0833333   0.2500000), wk =   0.0555556
        k(   27) = (  -0.4166667   0.4166667   0.4166667), wk =   0.0185185
        k(   28) = (   0.4166667  -0.4166667   1.2500000), wk =   0.0555556

     Dense  grid:     5577 G-vectors     FFT dimensions: (  32,  32,  32)

     Estimated max dynamical RAM per process >       3.65 MB

     Estimated total dynamical RAM >      29.21 MB

     Check: negative core charge=   -0.000003

     Initial potential from superposition of free atoms

     starting charge       7.9989, renormalised to       8.0000
     Starting wfcs are    8 randomized atomic wfcs
     Checking if some PAW data can be deallocated... 

     total cpu time spent up to now is        0.2 secs

     Self-consistent Calculation

     iteration #  1     ecut=    30.00 Ry     beta= 0.60
     Davidson diagonalization with overlap
     ethr =  1.00E-02,  avg # of iterations =  2.0

     Threshold (ethr) on eigenvalues was too large:
     Diagonalizing with lowered threshold

     Davidson diagonalization with overlap
     ethr =  7.30E-04,  avg # of iterations =  1.2

     total cpu time spent up to now is        0.3 secs

     total energy              =     -93.43829192 Ry
     estimated scf accuracy    <       0.06306110 Ry

     iteration #  2     ecut=    30.00 Ry     beta= 0.60
     Davidson diagonalization with overlap
     ethr =  7.88E-04,  avg # of iterations =  1.0

     total cpu time spent up to now is        0.4 secs

     total energy              =     -93.43941125 Ry
     estimated scf accuracy    <       0.00654549 Ry

     iteration #  3     ecut=    30.00 Ry     beta= 0.60
     Davidson diagonalization with overlap
     ethr =  8.18E-05,  avg # of iterations =  2.1

     total cpu time spent up to now is        0.5 secs

     total energy              =     -93.44070321 Ry
     estimated scf accuracy    <       0.00019041 Ry

     iteration #  4     ecut=    30.00 Ry     beta= 0.60
     Davidson diagonalization with overlap
     ethr =  2.38E-06,  avg # of iterations =  3.9

     total cpu time spent up to now is        0.6 secs

     total energy              =     -93.44080968 Ry
     estimated scf accuracy    <       0.00003100 Ry

     iteration #  5     ecut=    30.00 Ry     beta= 0.60
     Davidson diagonalization with overlap
     ethr =  3.87E-07,  avg # of iterations =  3.2

     total cpu time spent up to now is        0.7 secs

     total energy              =     -93.44082084 Ry
     estimated scf accuracy    <       0.00000106 Ry

     iteration #  6     ecut=    30.00 Ry     beta= 0.60
     Davidson diagonalization with overlap
     ethr =  1.32E-08,  avg # of iterations =  5.0

     total cpu time spent up to now is        0.8 secs

     End of self-consistent calculation

          k =-0.0833 0.0833 0.0833 (   679 PWs)   bands (ev):

    -5.3030   6.3778   7.0935   7.0935

          k =-0.2500 0.2500-0.0833 (   673 PWs)   bands (ev):

    -4.7833   4.2043   5.7336   6.8824

          k =-0.4167 0.4167-0.2500 (   675 PWs)   bands (ev):

    -3.5794   1.2017   5.2652   6.1894

          k = 0.4167-0.4167 0.5833 (   685 PWs)   bands (ev):

    -2.7806  -0.0770   5.3597   5.7658

          k = 0.2500-0.2500 0.4167 (   675 PWs)   bands (ev):

    -4.0367   2.1269   5.8137   5.9054

          k = 0.0833-0.0833 0.2500 (   676 PWs)   bands (ev):

    -5.0410   5.2881   6.3699   6.6251

          k =-0.0833 0.4167 0.0833 (   676 PWs)   bands (ev):

    -4.5211   4.0863   5.5693   5.5940

          k =-0.2500 0.5833-0.0833 (   680 PWs)   bands (ev):

    -3.5239   2.1221   4.1187   5.1548

          k = 0.5833-0.2500 0.7500 (   683 PWs)   bands (ev):

    -2.2644   0.1473   3.4988   4.8923

          k = 0.4167-0.0833 0.5833 (   683 PWs)   bands (ev):

    -3.0838   1.3477   3.4090   5.4433

          k = 0.2500 0.0833 0.4167 (   673 PWs)   bands (ev):

    -4.2734   3.1411   4.8867   6.2028

          k =-0.0833 0.7500 0.0833 (   683 PWs)   bands (ev):

    -2.7511   1.2969   4.0575   4.4524

          k = 0.7500-0.0833 0.9167 (   685 PWs)   bands (ev):

    -1.4290  -0.1526   3.0978   3.9821

          k = 0.5833 0.0833 0.7500 (   687 PWs)   bands (ev):

    -1.8067   0.1543   2.5776   4.5873

          k = 0.4167 0.2500 0.5833 (   680 PWs)   bands (ev):

    -2.9473   0.5140   4.5071   5.5586

          k =-0.0833-0.9167 0.0833 (   685 PWs)   bands (ev):

    -1.5438  -0.1688   3.7595   4.2196

          k =-0.2500-0.7500-0.0833 (   678 PWs)   bands (ev):

    -2.5587   1.0425   3.4788   4.3537

          k =-0.0833-0.5833 0.0833 (   680 PWs)   bands (ev):

    -3.7525   2.7529   4.6705   4.9098

          k =-0.2500 0.2500 0.2500 (   670 PWs)   bands (ev):

    -4.5317   3.1247   6.4291   6.4291

          k =-0.4167 0.4167 0.0833 (   674 PWs)   bands (ev):

    -3.7870   2.1880   4.0820   6.2548

          k = 0.4167-0.4167 0.9167 (   684 PWs)   bands (ev):

    -2.4772   0.6667   2.8449   5.3792

          k = 0.2500-0.2500 0.7500 (   684 PWs)   bands (ev):

    -2.4262   0.5834   3.3939   4.8433

          k =-0.2500 0.5833 0.2500 (   680 PWs)   bands (ev):

    -3.3187   1.2932   4.6515   5.2519

          k = 0.5833-0.2500 1.0833 (   680 PWs)   bands (ev):

    -2.2111   0.5921   2.9470   4.3379

          k = 0.4167-0.0833 0.9167 (   689 PWs)   bands (ev):

    -1.2914  -0.1609   2.7256   3.5870

          k =-0.2500-1.0833 0.2500 (   687 PWs)   bands (ev):

    -1.5186  -0.0920   2.5873   4.6309

          k =-0.4167 0.4167 0.4167 (   679 PWs)   bands (ev):

    -3.2039   0.3681   6.0200   6.0200

          k = 0.4167-0.4167 1.2500 (   681 PWs)   bands (ev):

    -2.5255   0.0672   4.0342   5.5225

     highest occupied level (ev):     7.0935

!    total energy              =     -93.44082154 Ry
     total all-electron energy =     -1160.132551 Ry
     estimated scf accuracy    <       0.00000068 Ry

     The total energy is the sum of the following terms:
     one-electron contribution =       6.52034555 Ry
     hartree contribution      =       1.01678263 Ry
     xc contribution           =     -12.42991160 Ry
     ewald contribution        =     -17.34362481 Ry
     one-center paw contrib.   =     -71.20441330 Ry

     convergence has been achieved in   6 iterations

     Writing all to output data dir ./silicon.save/
 
     init_run     :      0.08s CPU      0.09s WALL (       1 calls)
     electrons    :      0.62s CPU      0.67s WALL (       1 calls)

     Called by init_run:
     wfcinit      :      0.01s CPU      0.01s WALL (       1 calls)
     potinit      :      0.05s CPU      0.06s WALL (       1 calls)
     hinit0       :      0.01s CPU      0.02s WALL (       1 calls)

     Called by electrons:
     c_bands      :      0.22s CPU      0.23s WALL (       7 calls)
     sum_band     :      0.06s CPU      0.06s WALL (       7 calls)
     v_of_rho     :      0.01s CPU      0.01s WALL (       7 calls)
     newd         :      0.01s CPU      0.02s WALL (       7 calls)
     PAW_pot      :      0.37s CPU      0.41s WALL (       7 calls)
     mix_rho      :      0.00s CPU      0.00s WALL (       7 calls)

     Called by c_bands:
     init_us_2    :      0.01s CPU      0.01s WALL (     420 calls)
     init_us_2:cp :      0.01s CPU      0.01s WALL (     420 calls)
     cegterg      :      0.15s CPU      0.15s WALL (     196 calls)

     Called by *egterg:
     cdiaghg      :      0.01s CPU      0.01s WALL (     684 calls)
     h_psi        :      0.11s CPU      0.12s WALL (     740 calls)
     s_psi        :      0.00s CPU      0.00s WALL (     740 calls)
     g_psi        :      0.00s CPU      0.00s WALL (     516 calls)

     Called by h_psi:
     h_psi:calbec :      0.01s CPU      0.01s WALL (     740 calls)
     vloc_psi     :      0.09s CPU      0.10s WALL (     740 calls)
     add_vuspsi   :      0.00s CPU      0.00s WALL (     740 calls)

     General routines
     calbec       :      0.01s CPU      0.01s WALL (     936 calls)
     fft          :      0.00s CPU      0.00s WALL (      78 calls)
     ffts         :      0.00s CPU      0.00s WALL (       7 calls)
     fftw         :      0.10s CPU      0.10s WALL (    6018 calls)
 
     Parallel routines
 
     PWSCF        :      0.78s CPU      0.85s WALL

 
   This run was terminated on:  17:42:13  13Mar2026            

=------------------------------------------------------------------------------=
   JOB DONE.
=------------------------------------------------------------------------------=
