
     Program PWSCF v.7.1 starts on 13Mar2026 at 17:42:18 

     This program is part of the open-source Quantum ESPRESSO suite
     for quantum simulation of materials; please cite
         "P. Giannozzi et al., J. Phys.:Condens. Matter 21 395502 (2009);
         "P. Giannozzi et al., J. Phys.:Condens. Matter 29 465901 (2017);
         "P. Giannozzi et al., J. Chem. Phys. 152 154105 (2020);
          URL http://www.quantum-espresso.org", 
     in publications or presentations arising from this work. More details at
     http://www.quantum-espresso.org/quote

     Parallel version (MPI), running on     8 processors

     MPI processes distributed on     1 nodes
     11522 MiB available memory on the printing compute node when the environment starts
 
     Reading input from scf.in

     Current dimensions of program PWSCF are:
     Max number of different atomic species (ntypx) = 10
     Max number of k-points (npk) =  40000
     Max angular momentum in pseudopotentials (lmaxx) =  4
     file Si.pbe-n-kjpaw_psl.1.0.0.UPF: wavefunction(s)  3S 3P renormalized
 
     R & G space division:  proc/nbgrp/npool/nimage =       8
     Subspace diagonalization in iterative solution of the eigenvalue problem:
     a serial algorithm will be used

 
     Parallelization info
     --------------------
     sticks:   dense  smooth     PW     G-vecs:    dense   smooth      PW
     Min          53      53     18                  727      727     142
     Max          56      56     20                  728      728     143
     Sum         433     433    151                 5817     5817    1139
 
     Using Slab Decomposition
 


     bravais-lattice index     =            2
     lattice parameter (alat)  =      10.1460  a.u.
     unit-cell volume          =     261.1121 (a.u.)^3
     number of atoms/cell      =            2
     number of atomic types    =            1
     number of electrons       =         8.00
     number of Kohn-Sham states=            4
     kinetic-energy cutoff     =      30.0000  Ry
     charge density cutoff     =     120.0000  Ry
     scf convergence threshold =      1.0E-06
     mixing beta               =       0.6000
     number of iterations used =            8  plain     mixing
     Exchange-correlation= SLA  PW   PBX  PBC
                           (   1   4   3   4   0   0   0)

     celldm(1)=  10.146018  celldm(2)=   0.000000  celldm(3)=   0.000000
     celldm(4)=   0.000000  celldm(5)=   0.000000  celldm(6)=   0.000000

     crystal axes: (cart. coord. in units of alat)
               a(1) = (  -0.500000   0.000000   0.500000 )  
               a(2) = (   0.000000   0.500000   0.500000 )  
               a(3) = (  -0.500000   0.500000   0.000000 )  

     reciprocal axes: (cart. coord. in units 2 pi/alat)
               b(1) = ( -1.000000 -1.000000  1.000000 )  
               b(2) = (  1.000000  1.000000  1.000000 )  
               b(3) = ( -1.000000  1.000000 -1.000000 )  


     PseudoPot. # 1 for Si read from file:
     /home/karan/pseudos/Si.pbe-n-kjpaw_psl.1.0.0.UPF
     MD5 check sum: c39c59da582df4a0d9f10159256ea34e
     Pseudo is Projector augmented-wave + core cor, Zval =  4.0
     Generated using &quot;atomic&quot; code by A. Dal Corso  v.6.3
     Shape of augmentation charge: PSQ
     Using radial grid of 1141 points,  6 beta functions with: 
                l(1) =   0
                l(2) =   0
                l(3) =   1
                l(4) =   1
                l(5) =   2
                l(6) =   2
     Q(r) pseudized with 0 coefficients 


     atomic species   valence    mass     pseudopotential
        Si             4.00    28.08600     Si( 1.00)

     48 Sym. Ops., with inversion, found (24 have fractional translation)



   Cartesian axes

     site n.     atom                  positions (alat units)
         1           Si  tau(   1) = (   0.0000000   0.0000000   0.0000000  )
         2           Si  tau(   2) = (   0.2500000   0.2500000   0.2500000  )

     number of k points=    28
                       cart. coord. in units 2pi/alat
        k(    1) = (  -0.0833333   0.0833333   0.0833333), wk =   0.0185185
        k(    2) = (  -0.2500000   0.2500000  -0.0833333), wk =   0.0555556
        k(    3) = (  -0.4166667   0.4166667  -0.2500000), wk =   0.0555556
        k(    4) = (   0.4166667  -0.4166667   0.5833333), wk =   0.0555556
        k(    5) = (   0.2500000  -0.2500000   0.4166667), wk =   0.0555556
        k(    6) = (   0.0833333  -0.0833333   0.2500000), wk =   0.0555556
        k(    7) = (  -0.0833333   0.4166667   0.0833333), wk =   0.0555556
        k(    8) = (  -0.2500000   0.5833333  -0.0833333), wk =   0.1111111
        k(    9) = (   0.5833333  -0.2500000   0.7500000), wk =   0.1111111
        k(   10) = (   0.4166667  -0.0833333   0.5833333), wk =   0.1111111
        k(   11) = (   0.2500000   0.0833333   0.4166667), wk =   0.1111111
        k(   12) = (  -0.0833333   0.7500000   0.0833333), wk =   0.0555556
        k(   13) = (   0.7500000  -0.0833333   0.9166667), wk =   0.1111111
        k(   14) = (   0.5833333   0.0833333   0.7500000), wk =   0.1111111
        k(   15) = (   0.4166667   0.2500000   0.5833333), wk =   0.1111111
        k(   16) = (  -0.0833333  -0.9166667   0.0833333), wk =   0.0555556
        k(   17) = (  -0.2500000  -0.7500000  -0.0833333), wk =   0.1111111
        k(   18) = (  -0.0833333  -0.5833333   0.0833333), wk =   0.0555556
        k(   19) = (  -0.2500000   0.2500000   0.2500000), wk =   0.0185185
        k(   20) = (  -0.4166667   0.4166667   0.0833333), wk =   0.0555556
        k(   21) = (   0.4166667  -0.4166667   0.9166667), wk =   0.0555556
        k(   22) = (   0.2500000  -0.2500000   0.7500000), wk =   0.0555556
        k(   23) = (  -0.2500000   0.5833333   0.2500000), wk =   0.0555556
        k(   24) = (   0.5833333  -0.2500000   1.0833333), wk =   0.1111111
        k(   25) = (   0.4166667  -0.0833333   0.9166667), wk =   0.1111111
        k(   26) = (  -0.2500000  -1.0833333   0.2500000), wk =   0.0555556
        k(   27) = (  -0.4166667   0.4166667   0.4166667), wk =   0.0185185
        k(   28) = (   0.4166667  -0.4166667   1.2500000), wk =   0.0555556

     Dense  grid:     5817 G-vectors     FFT dimensions: (  32,  32,  32)

     Estimated max dynamical RAM per process >       3.76 MB

     Estimated total dynamical RAM >      30.07 MB

     Check: negative core charge=   -0.000004

     Initial potential from superposition of free atoms

     starting charge       7.9989, renormalised to       8.0000
     Starting wfcs are    8 randomized atomic wfcs
     Checking if some PAW data can be deallocated... 

     total cpu time spent up to now is        0.2 secs

     Self-consistent Calculation

     iteration #  1     ecut=    30.00 Ry     beta= 0.60
     Davidson diagonalization with overlap
     ethr =  1.00E-02,  avg # of iterations =  2.0

     Threshold (ethr) on eigenvalues was too large:
     Diagonalizing with lowered threshold

     Davidson diagonalization with overlap
     ethr =  6.61E-04,  avg # of iterations =  1.3

     total cpu time spent up to now is        0.3 secs

     total energy              =     -93.44868133 Ry
     estimated scf accuracy    <       0.05699882 Ry

     iteration #  2     ecut=    30.00 Ry     beta= 0.60
     Davidson diagonalization with overlap
     ethr =  7.12E-04,  avg # of iterations =  1.0

     total cpu time spent up to now is        0.4 secs

     total energy              =     -93.44953143 Ry
     estimated scf accuracy    <       0.00629051 Ry

     iteration #  3     ecut=    30.00 Ry     beta= 0.60
     Davidson diagonalization with overlap
     ethr =  7.86E-05,  avg # of iterations =  2.2

     total cpu time spent up to now is        0.5 secs

     total energy              =     -93.45063327 Ry
     estimated scf accuracy    <       0.00017670 Ry

     iteration #  4     ecut=    30.00 Ry     beta= 0.60
     Davidson diagonalization with overlap
     ethr =  2.21E-06,  avg # of iterations =  4.0

     total cpu time spent up to now is        0.6 secs

     total energy              =     -93.45072673 Ry
     estimated scf accuracy    <       0.00004351 Ry

     iteration #  5     ecut=    30.00 Ry     beta= 0.60
     Davidson diagonalization with overlap
     ethr =  5.44E-07,  avg # of iterations =  2.6

     total cpu time spent up to now is        0.7 secs

     End of self-consistent calculation

          k =-0.0833 0.0833 0.0833 (   728 PWs)   bands (ev):

    -5.5396   5.7085   6.4215   6.4215

          k =-0.2500 0.2500-0.0833 (   723 PWs)   bands (ev):

    -5.0468   3.5932   5.1373   6.2108

          k =-0.4167 0.4167-0.2500 (   735 PWs)   bands (ev):

    -3.9127   0.7383   4.6716   5.5519

          k = 0.4167-0.4167 0.5833 (   728 PWs)   bands (ev):

    -3.1770  -0.4565   4.7489   5.1548

          k = 0.2500-0.2500 0.4167 (   726 PWs)   bands (ev):

    -4.3416   1.6151   5.2101   5.2659

          k = 0.0833-0.0833 0.2500 (   717 PWs)   bands (ev):

    -5.2910   4.6334   5.7454   5.9579

          k =-0.0833 0.4167 0.0833 (   724 PWs)   bands (ev):

    -4.7978   3.4335   4.9869   4.9880

          k =-0.2500 0.5833-0.0833 (   728 PWs)   bands (ev):

    -3.8549   1.5453   3.6085   4.5904

          k = 0.5833-0.2500 0.7500 (   722 PWs)   bands (ev):

    -2.6851  -0.2902   2.9992   4.3500

          k = 0.4167-0.0833 0.5833 (   726 PWs)   bands (ev):

    -3.4433   0.8213   2.9395   4.8611

          k = 0.2500 0.0833 0.4167 (   724 PWs)   bands (ev):

    -4.5640   2.5542   4.3331   5.5642

          k =-0.0833 0.7500 0.0833 (   726 PWs)   bands (ev):

    -3.1203   0.7179   3.5641   3.9253

          k = 0.7500-0.0833 0.9167 (   728 PWs)   bands (ev):

    -1.8771  -0.6638   2.6770   3.4942

          k = 0.5833 0.0833 0.7500 (   720 PWs)   bands (ev):

    -2.2510  -0.3381   2.1787   4.0626

          k = 0.4167 0.2500 0.5833 (   725 PWs)   bands (ev):

    -3.3221   0.0792   3.9420   4.9656

          k =-0.0833-0.9167 0.0833 (   728 PWs)   bands (ev):

    -1.9774  -0.6747   3.2837   3.7032

          k =-0.2500-0.7500-0.0833 (   724 PWs)   bands (ev):

    -2.9428   0.4828   3.0208   3.8468

          k =-0.0833-0.5833 0.0833 (   722 PWs)   bands (ev):

    -4.0691   2.1186   4.1347   4.3610

          k =-0.2500 0.2500 0.2500 (   733 PWs)   bands (ev):

    -4.8091   2.5747   5.7879   5.7880

          k =-0.4167 0.4167 0.0833 (   729 PWs)   bands (ev):

    -4.1053   1.6412   3.5721   5.6166

          k = 0.4167-0.4167 0.9167 (   722 PWs)   bands (ev):

    -2.8773   0.1697   2.4151   4.7959

          k = 0.2500-0.2500 0.7500 (   724 PWs)   bands (ev):

    -2.8255   0.0889   2.9208   4.2931

          k =-0.2500 0.5833 0.2500 (   722 PWs)   bands (ev):

    -3.6647   0.8000   4.0771   4.6799

          k = 0.5833-0.2500 1.0833 (   723 PWs)   bands (ev):

    -2.6231   0.0709   2.5161   3.8393

          k = 0.4167-0.0833 0.9167 (   722 PWs)   bands (ev):

    -1.7591  -0.6718   2.3311   3.1399

          k =-0.2500-1.0833 0.2500 (   722 PWs)   bands (ev):

    -1.9759  -0.5868   2.2002   4.0917

          k =-0.4167 0.4167 0.4167 (   736 PWs)   bands (ev):

    -3.5662  -0.0398   5.3913   5.3913

          k = 0.4167-0.4167 1.2500 (   720 PWs)   bands (ev):

    -2.9340  -0.3399   3.4981   4.9291

     highest occupied level (ev):     6.4215

!    total energy              =     -93.45073725 Ry
     total all-electron energy =     -1160.142467 Ry
     estimated scf accuracy    <       0.00000051 Ry

     The total energy is the sum of the following terms:
     one-electron contribution =       6.01198977 Ry
     hartree contribution      =       1.07041897 Ry
     xc contribution           =     -12.35087664 Ry
     ewald contribution        =     -16.98967329 Ry
     one-center paw contrib.   =     -71.19259606 Ry

     convergence has been achieved in   5 iterations

     Writing all to output data dir ./silicon.save/
 
     init_run     :      0.07s CPU      0.09s WALL (       1 calls)
     electrons    :      0.45s CPU      0.52s WALL (       1 calls)

     Called by init_run:
     wfcinit      :      0.01s CPU      0.01s WALL (       1 calls)
     potinit      :      0.04s CPU      0.06s WALL (       1 calls)
     hinit0       :      0.01s CPU      0.02s WALL (       1 calls)

     Called by electrons:
     c_bands      :      0.17s CPU      0.18s WALL (       6 calls)
     sum_band     :      0.04s CPU      0.05s WALL (       6 calls)
     v_of_rho     :      0.00s CPU      0.01s WALL (       6 calls)
     newd         :      0.01s CPU      0.01s WALL (       6 calls)
     PAW_pot      :      0.26s CPU      0.32s WALL (       6 calls)
     mix_rho      :      0.00s CPU      0.00s WALL (       6 calls)

     Called by c_bands:
     init_us_2    :      0.01s CPU      0.01s WALL (     364 calls)
     init_us_2:cp :      0.01s CPU      0.01s WALL (     364 calls)
     cegterg      :      0.10s CPU      0.11s WALL (     168 calls)

     Called by *egterg:
     cdiaghg      :      0.01s CPU      0.01s WALL (     507 calls)
     h_psi        :      0.08s CPU      0.09s WALL (     563 calls)
     s_psi        :      0.00s CPU      0.00s WALL (     563 calls)
     g_psi        :      0.00s CPU      0.00s WALL (     367 calls)

     Called by h_psi:
     h_psi:calbec :      0.01s CPU      0.01s WALL (     563 calls)
     vloc_psi     :      0.07s CPU      0.08s WALL (     563 calls)
     add_vuspsi   :      0.00s CPU      0.00s WALL (     563 calls)

     General routines
     calbec       :      0.01s CPU      0.01s WALL (     731 calls)
     fft          :      0.00s CPU      0.00s WALL (      67 calls)
     ffts         :      0.00s CPU      0.00s WALL (       6 calls)
     fftw         :      0.07s CPU      0.08s WALL (    4840 calls)
 
     Parallel routines
 
     PWSCF        :      0.59s CPU      0.70s WALL

 
   This run was terminated on:  17:42:19  13Mar2026            

=------------------------------------------------------------------------------=
   JOB DONE.
=------------------------------------------------------------------------------=
