
     Program PWSCF v.7.1 starts on 13Mar2026 at 17:42:10 

     This program is part of the open-source Quantum ESPRESSO suite
     for quantum simulation of materials; please cite
         "P. Giannozzi et al., J. Phys.:Condens. Matter 21 395502 (2009);
         "P. Giannozzi et al., J. Phys.:Condens. Matter 29 465901 (2017);
         "P. Giannozzi et al., J. Chem. Phys. 152 154105 (2020);
          URL http://www.quantum-espresso.org", 
     in publications or presentations arising from this work. More details at
     http://www.quantum-espresso.org/quote

     Parallel version (MPI), running on     8 processors

     MPI processes distributed on     1 nodes
     11524 MiB available memory on the printing compute node when the environment starts
 
     Reading input from scf.in

     Current dimensions of program PWSCF are:
     Max number of different atomic species (ntypx) = 10
     Max number of k-points (npk) =  40000
     Max angular momentum in pseudopotentials (lmaxx) =  4
     file Si.pbe-n-kjpaw_psl.1.0.0.UPF: wavefunction(s)  3S 3P renormalized
 
     R & G space division:  proc/nbgrp/npool/nimage =       8
     Subspace diagonalization in iterative solution of the eigenvalue problem:
     a serial algorithm will be used

 
     Parallelization info
     --------------------
     sticks:   dense  smooth     PW     G-vecs:    dense   smooth      PW
     Min          49      49     16                  650      650     129
     Max          50      50     18                  652      652     130
     Sum         397     397    139                 5209     5209    1037
 
     Using Slab Decomposition
 


     bravais-lattice index     =            2
     lattice parameter (alat)  =       9.8354  a.u.
     unit-cell volume          =     237.8590 (a.u.)^3
     number of atoms/cell      =            2
     number of atomic types    =            1
     number of electrons       =         8.00
     number of Kohn-Sham states=            4
     kinetic-energy cutoff     =      30.0000  Ry
     charge density cutoff     =     120.0000  Ry
     scf convergence threshold =      1.0E-06
     mixing beta               =       0.6000
     number of iterations used =            8  plain     mixing
     Exchange-correlation= SLA  PW   PBX  PBC
                           (   1   4   3   4   0   0   0)

     celldm(1)=   9.835426  celldm(2)=   0.000000  celldm(3)=   0.000000
     celldm(4)=   0.000000  celldm(5)=   0.000000  celldm(6)=   0.000000

     crystal axes: (cart. coord. in units of alat)
               a(1) = (  -0.500000   0.000000   0.500000 )  
               a(2) = (   0.000000   0.500000   0.500000 )  
               a(3) = (  -0.500000   0.500000   0.000000 )  

     reciprocal axes: (cart. coord. in units 2 pi/alat)
               b(1) = ( -1.000000 -1.000000  1.000000 )  
               b(2) = (  1.000000  1.000000  1.000000 )  
               b(3) = ( -1.000000  1.000000 -1.000000 )  


     PseudoPot. # 1 for Si read from file:
     /home/karan/pseudos/Si.pbe-n-kjpaw_psl.1.0.0.UPF
     MD5 check sum: c39c59da582df4a0d9f10159256ea34e
     Pseudo is Projector augmented-wave + core cor, Zval =  4.0
     Generated using &quot;atomic&quot; code by A. Dal Corso  v.6.3
     Shape of augmentation charge: PSQ
     Using radial grid of 1141 points,  6 beta functions with: 
                l(1) =   0
                l(2) =   0
                l(3) =   1
                l(4) =   1
                l(5) =   2
                l(6) =   2
     Q(r) pseudized with 0 coefficients 


     atomic species   valence    mass     pseudopotential
        Si             4.00    28.08600     Si( 1.00)

     48 Sym. Ops., with inversion, found (24 have fractional translation)



   Cartesian axes

     site n.     atom                  positions (alat units)
         1           Si  tau(   1) = (   0.0000000   0.0000000   0.0000000  )
         2           Si  tau(   2) = (   0.2500000   0.2500000   0.2500000  )

     number of k points=    28
                       cart. coord. in units 2pi/alat
        k(    1) = (  -0.0833333   0.0833333   0.0833333), wk =   0.0185185
        k(    2) = (  -0.2500000   0.2500000  -0.0833333), wk =   0.0555556
        k(    3) = (  -0.4166667   0.4166667  -0.2500000), wk =   0.0555556
        k(    4) = (   0.4166667  -0.4166667   0.5833333), wk =   0.0555556
        k(    5) = (   0.2500000  -0.2500000   0.4166667), wk =   0.0555556
        k(    6) = (   0.0833333  -0.0833333   0.2500000), wk =   0.0555556
        k(    7) = (  -0.0833333   0.4166667   0.0833333), wk =   0.0555556
        k(    8) = (  -0.2500000   0.5833333  -0.0833333), wk =   0.1111111
        k(    9) = (   0.5833333  -0.2500000   0.7500000), wk =   0.1111111
        k(   10) = (   0.4166667  -0.0833333   0.5833333), wk =   0.1111111
        k(   11) = (   0.2500000   0.0833333   0.4166667), wk =   0.1111111
        k(   12) = (  -0.0833333   0.7500000   0.0833333), wk =   0.0555556
        k(   13) = (   0.7500000  -0.0833333   0.9166667), wk =   0.1111111
        k(   14) = (   0.5833333   0.0833333   0.7500000), wk =   0.1111111
        k(   15) = (   0.4166667   0.2500000   0.5833333), wk =   0.1111111
        k(   16) = (  -0.0833333  -0.9166667   0.0833333), wk =   0.0555556
        k(   17) = (  -0.2500000  -0.7500000  -0.0833333), wk =   0.1111111
        k(   18) = (  -0.0833333  -0.5833333   0.0833333), wk =   0.0555556
        k(   19) = (  -0.2500000   0.2500000   0.2500000), wk =   0.0185185
        k(   20) = (  -0.4166667   0.4166667   0.0833333), wk =   0.0555556
        k(   21) = (   0.4166667  -0.4166667   0.9166667), wk =   0.0555556
        k(   22) = (   0.2500000  -0.2500000   0.7500000), wk =   0.0555556
        k(   23) = (  -0.2500000   0.5833333   0.2500000), wk =   0.0555556
        k(   24) = (   0.5833333  -0.2500000   1.0833333), wk =   0.1111111
        k(   25) = (   0.4166667  -0.0833333   0.9166667), wk =   0.1111111
        k(   26) = (  -0.2500000  -1.0833333   0.2500000), wk =   0.0555556
        k(   27) = (  -0.4166667   0.4166667   0.4166667), wk =   0.0185185
        k(   28) = (   0.4166667  -0.4166667   1.2500000), wk =   0.0555556

     Dense  grid:     5209 G-vectors     FFT dimensions: (  32,  32,  32)

     Estimated max dynamical RAM per process >       3.49 MB

     Estimated total dynamical RAM >      27.95 MB

     Check: negative core charge=   -0.000004

     Initial potential from superposition of free atoms

     starting charge       7.9989, renormalised to       8.0000
     Starting wfcs are    8 randomized atomic wfcs
     Checking if some PAW data can be deallocated... 

     total cpu time spent up to now is        0.2 secs

     Self-consistent Calculation

     iteration #  1     ecut=    30.00 Ry     beta= 0.60
     Davidson diagonalization with overlap
     ethr =  1.00E-02,  avg # of iterations =  2.0

     Threshold (ethr) on eigenvalues was too large:
     Diagonalizing with lowered threshold

     Davidson diagonalization with overlap
     ethr =  7.67E-04,  avg # of iterations =  1.1

     total cpu time spent up to now is        0.3 secs

     total energy              =     -93.42986557 Ry
     estimated scf accuracy    <       0.06606659 Ry

     iteration #  2     ecut=    30.00 Ry     beta= 0.60
     Davidson diagonalization with overlap
     ethr =  8.26E-04,  avg # of iterations =  1.0

     total cpu time spent up to now is        0.4 secs

     total energy              =     -93.43120586 Ry
     estimated scf accuracy    <       0.00665673 Ry

     iteration #  3     ecut=    30.00 Ry     beta= 0.60
     Davidson diagonalization with overlap
     ethr =  8.32E-05,  avg # of iterations =  2.2

     total cpu time spent up to now is        0.5 secs

     total energy              =     -93.43262321 Ry
     estimated scf accuracy    <       0.00021002 Ry

     iteration #  4     ecut=    30.00 Ry     beta= 0.60
     Davidson diagonalization with overlap
     ethr =  2.63E-06,  avg # of iterations =  3.7

     total cpu time spent up to now is        0.6 secs

     total energy              =     -93.43272093 Ry
     estimated scf accuracy    <       0.00004369 Ry

     iteration #  5     ecut=    30.00 Ry     beta= 0.60
     Davidson diagonalization with overlap
     ethr =  5.46E-07,  avg # of iterations =  3.0

     total cpu time spent up to now is        0.6 secs

     End of self-consistent calculation

          k =-0.0833 0.0833 0.0833 (   652 PWs)   bands (ev):

    -5.1706   6.7376   7.4585   7.4585

          k =-0.2500 0.2500-0.0833 (   657 PWs)   bands (ev):

    -4.6367   4.5312   6.0576   7.2479

          k =-0.4167 0.4167-0.2500 (   655 PWs)   bands (ev):

    -3.3958   1.4510   5.5880   6.5367

          k = 0.4167-0.4167 0.5833 (   656 PWs)   bands (ev):

    -2.5624   0.1270   5.6922   6.0986

          k = 0.2500-0.2500 0.4167 (   651 PWs)   bands (ev):

    -3.8683   2.4020   6.1419   6.2533

          k = 0.0833-0.0833 0.2500 (   654 PWs)   bands (ev):

    -4.9015   5.6379   6.7089   6.9882

          k =-0.0833 0.4167 0.0833 (   659 PWs)   bands (ev):

    -4.3676   4.4351   5.8852   5.9257

          k =-0.2500 0.5833-0.0833 (   658 PWs)   bands (ev):

    -3.3417   2.4320   4.3974   5.4616

          k = 0.5833-0.2500 0.7500 (   668 PWs)   bands (ev):

    -2.0333   0.3816   3.7727   5.1867

          k = 0.4167-0.0833 0.5833 (   658 PWs)   bands (ev):

    -2.8864   1.6305   3.6659   5.7598

          k = 0.2500 0.0833 0.4167 (   650 PWs)   bands (ev):

    -4.1126   3.4553   5.1881   6.5505

          k =-0.0833 0.7500 0.0833 (   660 PWs)   bands (ev):

    -2.5487   1.6105   4.3258   4.7397

          k = 0.7500-0.0833 0.9167 (   664 PWs)   bands (ev):

    -1.1845   0.1256   3.3262   4.2473

          k = 0.5833 0.0833 0.7500 (   664 PWs)   bands (ev):

    -1.5631   0.4199   2.7956   4.8723

          k = 0.4167 0.2500 0.5833 (   657 PWs)   bands (ev):

    -2.7414   0.7477   4.8152   5.8811

          k =-0.0833-0.9167 0.0833 (   662 PWs)   bands (ev):

    -1.3075   0.1061   4.0183   4.5013

          k =-0.2500-0.7500-0.0833 (   665 PWs)   bands (ev):

    -2.3483   1.3455   3.7283   4.6289

          k =-0.0833-0.5833 0.0833 (   654 PWs)   bands (ev):

    -3.5779   3.0947   4.9623   5.2085

          k =-0.2500 0.2500 0.2500 (   646 PWs)   bands (ev):

    -4.3779   3.4198   6.7777   6.7777

          k =-0.4167 0.4167 0.0833 (   647 PWs)   bands (ev):

    -3.6115   2.4812   4.3602   6.6023

          k = 0.4167-0.4167 0.9167 (   666 PWs)   bands (ev):

    -2.2578   0.9339   3.0803   5.6967

          k = 0.2500-0.2500 0.7500 (   660 PWs)   bands (ev):

    -2.2074   0.8494   3.6528   5.1430

          k =-0.2500 0.5833 0.2500 (   659 PWs)   bands (ev):

    -3.1285   1.5580   4.9650   5.5631

          k = 0.5833-0.2500 1.0833 (   664 PWs)   bands (ev):

    -1.9854   0.8734   3.1828   4.6082

          k = 0.4167-0.0833 0.9167 (   666 PWs)   bands (ev):

    -1.0356   0.1169   2.9398   3.8294

          k =-0.2500-1.0833 0.2500 (   670 PWs)   bands (ev):

    -1.2683   0.1762   2.7976   4.9247

          k =-0.4167 0.4167 0.4167 (   652 PWs)   bands (ev):

    -3.0045   0.5880   6.3626   6.3626

          k = 0.4167-0.4167 1.2500 (   663 PWs)   bands (ev):

    -2.3008   0.2854   4.3268   5.8456

     highest occupied level (ev):     7.4585

!    total energy              =     -93.43273346 Ry
     total all-electron energy =     -1160.124463 Ry
     estimated scf accuracy    <       0.00000096 Ry

     The total energy is the sum of the following terms:
     one-electron contribution =       6.78589321 Ry
     hartree contribution      =       0.98960681 Ry
     xc contribution           =     -12.47120215 Ry
     ewald contribution        =     -17.52618930 Ry
     one-center paw contrib.   =     -71.21084202 Ry

     convergence has been achieved in   5 iterations

     Writing all to output data dir ./silicon.save/
 
     init_run     :      0.08s CPU      0.09s WALL (       1 calls)
     electrons    :      0.44s CPU      0.49s WALL (       1 calls)

     Called by init_run:
     wfcinit      :      0.01s CPU      0.01s WALL (       1 calls)
     potinit      :      0.05s CPU      0.06s WALL (       1 calls)
     hinit0       :      0.01s CPU      0.02s WALL (       1 calls)

     Called by electrons:
     c_bands      :      0.15s CPU      0.17s WALL (       6 calls)
     sum_band     :      0.04s CPU      0.04s WALL (       6 calls)
     v_of_rho     :      0.01s CPU      0.01s WALL (       6 calls)
     newd         :      0.01s CPU      0.01s WALL (       6 calls)
     PAW_pot      :      0.28s CPU      0.32s WALL (       6 calls)
     mix_rho      :      0.00s CPU      0.00s WALL (       6 calls)

     Called by c_bands:
     init_us_2    :      0.00s CPU      0.01s WALL (     364 calls)
     init_us_2:cp :      0.00s CPU      0.01s WALL (     364 calls)
     cegterg      :      0.10s CPU      0.11s WALL (     168 calls)

     Called by *egterg:
     cdiaghg      :      0.01s CPU      0.01s WALL (     505 calls)
     h_psi        :      0.08s CPU      0.09s WALL (     561 calls)
     s_psi        :      0.00s CPU      0.00s WALL (     561 calls)
     g_psi        :      0.00s CPU      0.00s WALL (     365 calls)

     Called by h_psi:
     h_psi:calbec :      0.01s CPU      0.01s WALL (     561 calls)
     vloc_psi     :      0.07s CPU      0.08s WALL (     561 calls)
     add_vuspsi   :      0.00s CPU      0.00s WALL (     561 calls)

     General routines
     calbec       :      0.01s CPU      0.01s WALL (     729 calls)
     fft          :      0.00s CPU      0.00s WALL (      67 calls)
     ffts         :      0.00s CPU      0.00s WALL (       6 calls)
     fftw         :      0.07s CPU      0.08s WALL (    4870 calls)
 
     Parallel routines
 
     PWSCF        :      0.58s CPU      0.66s WALL

 
   This run was terminated on:  17:42:11  13Mar2026            

=------------------------------------------------------------------------------=
   JOB DONE.
=------------------------------------------------------------------------------=
