
     Program PWSCF v.7.1 starts on 13Mar2026 at 17:42:11 

     This program is part of the open-source Quantum ESPRESSO suite
     for quantum simulation of materials; please cite
         "P. Giannozzi et al., J. Phys.:Condens. Matter 21 395502 (2009);
         "P. Giannozzi et al., J. Phys.:Condens. Matter 29 465901 (2017);
         "P. Giannozzi et al., J. Chem. Phys. 152 154105 (2020);
          URL http://www.quantum-espresso.org", 
     in publications or presentations arising from this work. More details at
     http://www.quantum-espresso.org/quote

     Parallel version (MPI), running on     8 processors

     MPI processes distributed on     1 nodes
     11522 MiB available memory on the printing compute node when the environment starts
 
     Reading input from scf.in

     Current dimensions of program PWSCF are:
     Max number of different atomic species (ntypx) = 10
     Max number of k-points (npk) =  40000
     Max angular momentum in pseudopotentials (lmaxx) =  4
     file Si.pbe-n-kjpaw_psl.1.0.0.UPF: wavefunction(s)  3S 3P renormalized
 
     R & G space division:  proc/nbgrp/npool/nimage =       8
     Subspace diagonalization in iterative solution of the eigenvalue problem:
     a serial algorithm will be used

 
     Parallelization info
     --------------------
     sticks:   dense  smooth     PW     G-vecs:    dense   smooth      PW
     Min          51      51     17                  666      666     132
     Max          52      52     18                  667      667     134
     Sum         409     409    139                 5329     5329    1067
 
     Using Slab Decomposition
 


     bravais-lattice index     =            2
     lattice parameter (alat)  =       9.8872  a.u.
     unit-cell volume          =     241.6344 (a.u.)^3
     number of atoms/cell      =            2
     number of atomic types    =            1
     number of electrons       =         8.00
     number of Kohn-Sham states=            4
     kinetic-energy cutoff     =      30.0000  Ry
     charge density cutoff     =     120.0000  Ry
     scf convergence threshold =      1.0E-06
     mixing beta               =       0.6000
     number of iterations used =            8  plain     mixing
     Exchange-correlation= SLA  PW   PBX  PBC
                           (   1   4   3   4   0   0   0)

     celldm(1)=   9.887191  celldm(2)=   0.000000  celldm(3)=   0.000000
     celldm(4)=   0.000000  celldm(5)=   0.000000  celldm(6)=   0.000000

     crystal axes: (cart. coord. in units of alat)
               a(1) = (  -0.500000   0.000000   0.500000 )  
               a(2) = (   0.000000   0.500000   0.500000 )  
               a(3) = (  -0.500000   0.500000   0.000000 )  

     reciprocal axes: (cart. coord. in units 2 pi/alat)
               b(1) = ( -1.000000 -1.000000  1.000000 )  
               b(2) = (  1.000000  1.000000  1.000000 )  
               b(3) = ( -1.000000  1.000000 -1.000000 )  


     PseudoPot. # 1 for Si read from file:
     /home/karan/pseudos/Si.pbe-n-kjpaw_psl.1.0.0.UPF
     MD5 check sum: c39c59da582df4a0d9f10159256ea34e
     Pseudo is Projector augmented-wave + core cor, Zval =  4.0
     Generated using &quot;atomic&quot; code by A. Dal Corso  v.6.3
     Shape of augmentation charge: PSQ
     Using radial grid of 1141 points,  6 beta functions with: 
                l(1) =   0
                l(2) =   0
                l(3) =   1
                l(4) =   1
                l(5) =   2
                l(6) =   2
     Q(r) pseudized with 0 coefficients 


     atomic species   valence    mass     pseudopotential
        Si             4.00    28.08600     Si( 1.00)

     48 Sym. Ops., with inversion, found (24 have fractional translation)



   Cartesian axes

     site n.     atom                  positions (alat units)
         1           Si  tau(   1) = (   0.0000000   0.0000000   0.0000000  )
         2           Si  tau(   2) = (   0.2500000   0.2500000   0.2500000  )

     number of k points=    28
                       cart. coord. in units 2pi/alat
        k(    1) = (  -0.0833333   0.0833333   0.0833333), wk =   0.0185185
        k(    2) = (  -0.2500000   0.2500000  -0.0833333), wk =   0.0555556
        k(    3) = (  -0.4166667   0.4166667  -0.2500000), wk =   0.0555556
        k(    4) = (   0.4166667  -0.4166667   0.5833333), wk =   0.0555556
        k(    5) = (   0.2500000  -0.2500000   0.4166667), wk =   0.0555556
        k(    6) = (   0.0833333  -0.0833333   0.2500000), wk =   0.0555556
        k(    7) = (  -0.0833333   0.4166667   0.0833333), wk =   0.0555556
        k(    8) = (  -0.2500000   0.5833333  -0.0833333), wk =   0.1111111
        k(    9) = (   0.5833333  -0.2500000   0.7500000), wk =   0.1111111
        k(   10) = (   0.4166667  -0.0833333   0.5833333), wk =   0.1111111
        k(   11) = (   0.2500000   0.0833333   0.4166667), wk =   0.1111111
        k(   12) = (  -0.0833333   0.7500000   0.0833333), wk =   0.0555556
        k(   13) = (   0.7500000  -0.0833333   0.9166667), wk =   0.1111111
        k(   14) = (   0.5833333   0.0833333   0.7500000), wk =   0.1111111
        k(   15) = (   0.4166667   0.2500000   0.5833333), wk =   0.1111111
        k(   16) = (  -0.0833333  -0.9166667   0.0833333), wk =   0.0555556
        k(   17) = (  -0.2500000  -0.7500000  -0.0833333), wk =   0.1111111
        k(   18) = (  -0.0833333  -0.5833333   0.0833333), wk =   0.0555556
        k(   19) = (  -0.2500000   0.2500000   0.2500000), wk =   0.0185185
        k(   20) = (  -0.4166667   0.4166667   0.0833333), wk =   0.0555556
        k(   21) = (   0.4166667  -0.4166667   0.9166667), wk =   0.0555556
        k(   22) = (   0.2500000  -0.2500000   0.7500000), wk =   0.0555556
        k(   23) = (  -0.2500000   0.5833333   0.2500000), wk =   0.0555556
        k(   24) = (   0.5833333  -0.2500000   1.0833333), wk =   0.1111111
        k(   25) = (   0.4166667  -0.0833333   0.9166667), wk =   0.1111111
        k(   26) = (  -0.2500000  -1.0833333   0.2500000), wk =   0.0555556
        k(   27) = (  -0.4166667   0.4166667   0.4166667), wk =   0.0185185
        k(   28) = (   0.4166667  -0.4166667   1.2500000), wk =   0.0555556

     Dense  grid:     5329 G-vectors     FFT dimensions: (  32,  32,  32)

     Estimated max dynamical RAM per process >       3.54 MB

     Estimated total dynamical RAM >      28.36 MB

     Check: negative core charge=   -0.000004

     Initial potential from superposition of free atoms

     starting charge       7.9989, renormalised to       8.0000
     Starting wfcs are    8 randomized atomic wfcs
     Checking if some PAW data can be deallocated... 

     total cpu time spent up to now is        0.2 secs

     Self-consistent Calculation

     iteration #  1     ecut=    30.00 Ry     beta= 0.60
     Davidson diagonalization with overlap
     ethr =  1.00E-02,  avg # of iterations =  2.0

     Threshold (ethr) on eigenvalues was too large:
     Diagonalizing with lowered threshold

     Davidson diagonalization with overlap
     ethr =  7.49E-04,  avg # of iterations =  1.2

     total cpu time spent up to now is        0.3 secs

     total energy              =     -93.43435199 Ry
     estimated scf accuracy    <       0.06455165 Ry

     iteration #  2     ecut=    30.00 Ry     beta= 0.60
     Davidson diagonalization with overlap
     ethr =  8.07E-04,  avg # of iterations =  1.0

     total cpu time spent up to now is        0.4 secs

     total energy              =     -93.43556623 Ry
     estimated scf accuracy    <       0.00661451 Ry

     iteration #  3     ecut=    30.00 Ry     beta= 0.60
     Davidson diagonalization with overlap
     ethr =  8.27E-05,  avg # of iterations =  2.1

     total cpu time spent up to now is        0.5 secs

     total energy              =     -93.43694326 Ry
     estimated scf accuracy    <       0.00020458 Ry

     iteration #  4     ecut=    30.00 Ry     beta= 0.60
     Davidson diagonalization with overlap
     ethr =  2.56E-06,  avg # of iterations =  4.1

     total cpu time spent up to now is        0.6 secs

     total energy              =     -93.43705072 Ry
     estimated scf accuracy    <       0.00004036 Ry

     iteration #  5     ecut=    30.00 Ry     beta= 0.60
     Davidson diagonalization with overlap
     ethr =  5.05E-07,  avg # of iterations =  2.9

     total cpu time spent up to now is        0.7 secs

     End of self-consistent calculation

          k =-0.0833 0.0833 0.0833 (   664 PWs)   bands (ev):

    -5.2354   6.5589   7.2771   7.2771

          k =-0.2500 0.2500-0.0833 (   665 PWs)   bands (ev):

    -4.7086   4.3690   5.8964   7.0662

          k =-0.4167 0.4167-0.2500 (   667 PWs)   bands (ev):

    -3.4862   1.3274   5.4274   6.3640

          k = 0.4167-0.4167 0.5833 (   666 PWs)   bands (ev):

    -2.6701   0.0261   5.5268   5.9331

          k = 0.2500-0.2500 0.4167 (   661 PWs)   bands (ev):

    -3.9511   2.2656   5.9787   6.0802

          k = 0.0833-0.0833 0.2500 (   670 PWs)   bands (ev):

    -4.9698   5.4643   6.5403   6.8075

          k =-0.0833 0.4167 0.0833 (   667 PWs)   bands (ev):

    -4.4429   4.2622   5.7281   5.7605

          k =-0.2500 0.5833-0.0833 (   668 PWs)   bands (ev):

    -3.4314   2.2784   4.2586   5.3090

          k = 0.5833-0.2500 0.7500 (   672 PWs)   bands (ev):

    -2.1475   0.2658   3.6362   5.0403

          k = 0.4167-0.0833 0.5833 (   668 PWs)   bands (ev):

    -2.9837   1.4905   3.5379   5.6024

          k = 0.2500 0.0833 0.4167 (   663 PWs)   bands (ev):

    -4.1916   3.2995   5.0381   6.3776

          k =-0.0833 0.7500 0.0833 (   672 PWs)   bands (ev):

    -2.6485   1.4550   4.1924   4.5969

          k = 0.7500-0.0833 0.9167 (   678 PWs)   bands (ev):

    -1.3054  -0.0122   3.2126   4.1154

          k = 0.5833 0.0833 0.7500 (   676 PWs)   bands (ev):

    -1.6836   0.2885   2.6870   4.7305

          k = 0.4167 0.2500 0.5833 (   669 PWs)   bands (ev):

    -2.8430   0.6320   4.6618   5.7207

          k =-0.0833-0.9167 0.0833 (   670 PWs)   bands (ev):

    -1.4243  -0.0300   3.8896   4.3612

          k =-0.2500-0.7500-0.0833 (   668 PWs)   bands (ev):

    -2.4521   1.1953   3.6041   4.4921

          k =-0.0833-0.5833 0.0833 (   666 PWs)   bands (ev):

    -3.6638   2.9251   4.8171   5.0600

          k =-0.2500 0.2500 0.2500 (   664 PWs)   bands (ev):

    -4.4534   3.2734   6.6044   6.6044

          k =-0.4167 0.4167 0.0833 (   663 PWs)   bands (ev):

    -3.6979   2.3359   4.2216   6.4296

          k = 0.4167-0.4167 0.9167 (   678 PWs)   bands (ev):

    -2.3661   0.8016   2.9630   5.5388

          k = 0.2500-0.2500 0.7500 (   678 PWs)   bands (ev):

    -2.3154   0.7178   3.5238   4.9939

          k =-0.2500 0.5833 0.2500 (   671 PWs)   bands (ev):

    -3.2222   1.4268   4.8088   5.4083

          k = 0.5833-0.2500 1.0833 (   674 PWs)   bands (ev):

    -2.0969   0.7341   3.0653   4.4738

          k = 0.4167-0.0833 0.9167 (   679 PWs)   bands (ev):

    -1.1621  -0.0207   2.8332   3.7088

          k =-0.2500-1.0833 0.2500 (   676 PWs)   bands (ev):

    -1.3921   0.0434   2.6930   4.7786

          k =-0.4167 0.4167 0.4167 (   664 PWs)   bands (ev):

    -3.1028   0.4791   6.1922   6.1922

          k = 0.4167-0.4167 1.2500 (   675 PWs)   bands (ev):

    -2.4118   0.1775   4.1811   5.6850

     highest occupied level (ev):     7.2771

!    total energy              =     -93.43706122 Ry
     total all-electron energy =     -1160.128791 Ry
     estimated scf accuracy    <       0.00000085 Ry

     The total energy is the sum of the following terms:
     one-electron contribution =       6.65213107 Ry
     hartree contribution      =       1.00305508 Ry
     xc contribution           =     -12.45031061 Ry
     ewald contribution        =     -17.43442914 Ry
     one-center paw contrib.   =     -71.20750761 Ry

     convergence has been achieved in   5 iterations

     Writing all to output data dir ./silicon.save/
 
     init_run     :      0.06s CPU      0.09s WALL (       1 calls)
     electrons    :      0.43s CPU      0.50s WALL (       1 calls)

     Called by init_run:
     wfcinit      :      0.01s CPU      0.01s WALL (       1 calls)
     potinit      :      0.03s CPU      0.05s WALL (       1 calls)
     hinit0       :      0.01s CPU      0.02s WALL (       1 calls)

     Called by electrons:
     c_bands      :      0.16s CPU      0.17s WALL (       6 calls)
     sum_band     :      0.03s CPU      0.04s WALL (       6 calls)
     v_of_rho     :      0.00s CPU      0.01s WALL (       6 calls)
     newd         :      0.01s CPU      0.01s WALL (       6 calls)
     PAW_pot      :      0.26s CPU      0.32s WALL (       6 calls)
     mix_rho      :      0.00s CPU      0.00s WALL (       6 calls)

     Called by c_bands:
     init_us_2    :      0.00s CPU      0.01s WALL (     364 calls)
     init_us_2:cp :      0.00s CPU      0.01s WALL (     364 calls)
     cegterg      :      0.10s CPU      0.10s WALL (     168 calls)

     Called by *egterg:
     cdiaghg      :      0.01s CPU      0.01s WALL (     513 calls)
     h_psi        :      0.08s CPU      0.09s WALL (     569 calls)
     s_psi        :      0.00s CPU      0.00s WALL (     569 calls)
     g_psi        :      0.00s CPU      0.00s WALL (     373 calls)

     Called by h_psi:
     h_psi:calbec :      0.01s CPU      0.01s WALL (     569 calls)
     vloc_psi     :      0.07s CPU      0.07s WALL (     569 calls)
     add_vuspsi   :      0.00s CPU      0.00s WALL (     569 calls)

     General routines
     calbec       :      0.01s CPU      0.01s WALL (     737 calls)
     fft          :      0.00s CPU      0.00s WALL (      67 calls)
     ffts         :      0.00s CPU      0.00s WALL (       6 calls)
     fftw         :      0.07s CPU      0.08s WALL (    4886 calls)
 
     Parallel routines
 
     PWSCF        :      0.57s CPU      0.68s WALL

 
   This run was terminated on:  17:42:12  13Mar2026            

=------------------------------------------------------------------------------=
   JOB DONE.
=------------------------------------------------------------------------------=
