
     Program PWSCF v.7.1 starts on 13Mar2026 at 17:42:15 

     This program is part of the open-source Quantum ESPRESSO suite
     for quantum simulation of materials; please cite
         "P. Giannozzi et al., J. Phys.:Condens. Matter 21 395502 (2009);
         "P. Giannozzi et al., J. Phys.:Condens. Matter 29 465901 (2017);
         "P. Giannozzi et al., J. Chem. Phys. 152 154105 (2020);
          URL http://www.quantum-espresso.org", 
     in publications or presentations arising from this work. More details at
     http://www.quantum-espresso.org/quote

     Parallel version (MPI), running on     8 processors

     MPI processes distributed on     1 nodes
     11526 MiB available memory on the printing compute node when the environment starts
 
     Reading input from scf.in

     Current dimensions of program PWSCF are:
     Max number of different atomic species (ntypx) = 10
     Max number of k-points (npk) =  40000
     Max angular momentum in pseudopotentials (lmaxx) =  4
     file Si.pbe-n-kjpaw_psl.1.0.0.UPF: wavefunction(s)  3S 3P renormalized
 
     R & G space division:  proc/nbgrp/npool/nimage =       8
     Subspace diagonalization in iterative solution of the eigenvalue problem:
     a serial algorithm will be used

 
     Parallelization info
     --------------------
     sticks:   dense  smooth     PW     G-vecs:    dense   smooth      PW
     Min          52      52     17                  698      698     132
     Max          53      53     18                  701      701     134
     Sum         421     421    139                 5601     5601    1067
 
     Using Slab Decomposition
 


     bravais-lattice index     =            2
     lattice parameter (alat)  =      10.0425  a.u.
     unit-cell volume          =     253.2001 (a.u.)^3
     number of atoms/cell      =            2
     number of atomic types    =            1
     number of electrons       =         8.00
     number of Kohn-Sham states=            4
     kinetic-energy cutoff     =      30.0000  Ry
     charge density cutoff     =     120.0000  Ry
     scf convergence threshold =      1.0E-06
     mixing beta               =       0.6000
     number of iterations used =            8  plain     mixing
     Exchange-correlation= SLA  PW   PBX  PBC
                           (   1   4   3   4   0   0   0)

     celldm(1)=  10.042488  celldm(2)=   0.000000  celldm(3)=   0.000000
     celldm(4)=   0.000000  celldm(5)=   0.000000  celldm(6)=   0.000000

     crystal axes: (cart. coord. in units of alat)
               a(1) = (  -0.500000   0.000000   0.500000 )  
               a(2) = (   0.000000   0.500000   0.500000 )  
               a(3) = (  -0.500000   0.500000   0.000000 )  

     reciprocal axes: (cart. coord. in units 2 pi/alat)
               b(1) = ( -1.000000 -1.000000  1.000000 )  
               b(2) = (  1.000000  1.000000  1.000000 )  
               b(3) = ( -1.000000  1.000000 -1.000000 )  


     PseudoPot. # 1 for Si read from file:
     /home/karan/pseudos/Si.pbe-n-kjpaw_psl.1.0.0.UPF
     MD5 check sum: c39c59da582df4a0d9f10159256ea34e
     Pseudo is Projector augmented-wave + core cor, Zval =  4.0
     Generated using &quot;atomic&quot; code by A. Dal Corso  v.6.3
     Shape of augmentation charge: PSQ
     Using radial grid of 1141 points,  6 beta functions with: 
                l(1) =   0
                l(2) =   0
                l(3) =   1
                l(4) =   1
                l(5) =   2
                l(6) =   2
     Q(r) pseudized with 0 coefficients 


     atomic species   valence    mass     pseudopotential
        Si             4.00    28.08600     Si( 1.00)

     48 Sym. Ops., with inversion, found (24 have fractional translation)



   Cartesian axes

     site n.     atom                  positions (alat units)
         1           Si  tau(   1) = (   0.0000000   0.0000000   0.0000000  )
         2           Si  tau(   2) = (   0.2500000   0.2500000   0.2500000  )

     number of k points=    28
                       cart. coord. in units 2pi/alat
        k(    1) = (  -0.0833333   0.0833333   0.0833333), wk =   0.0185185
        k(    2) = (  -0.2500000   0.2500000  -0.0833333), wk =   0.0555556
        k(    3) = (  -0.4166667   0.4166667  -0.2500000), wk =   0.0555556
        k(    4) = (   0.4166667  -0.4166667   0.5833333), wk =   0.0555556
        k(    5) = (   0.2500000  -0.2500000   0.4166667), wk =   0.0555556
        k(    6) = (   0.0833333  -0.0833333   0.2500000), wk =   0.0555556
        k(    7) = (  -0.0833333   0.4166667   0.0833333), wk =   0.0555556
        k(    8) = (  -0.2500000   0.5833333  -0.0833333), wk =   0.1111111
        k(    9) = (   0.5833333  -0.2500000   0.7500000), wk =   0.1111111
        k(   10) = (   0.4166667  -0.0833333   0.5833333), wk =   0.1111111
        k(   11) = (   0.2500000   0.0833333   0.4166667), wk =   0.1111111
        k(   12) = (  -0.0833333   0.7500000   0.0833333), wk =   0.0555556
        k(   13) = (   0.7500000  -0.0833333   0.9166667), wk =   0.1111111
        k(   14) = (   0.5833333   0.0833333   0.7500000), wk =   0.1111111
        k(   15) = (   0.4166667   0.2500000   0.5833333), wk =   0.1111111
        k(   16) = (  -0.0833333  -0.9166667   0.0833333), wk =   0.0555556
        k(   17) = (  -0.2500000  -0.7500000  -0.0833333), wk =   0.1111111
        k(   18) = (  -0.0833333  -0.5833333   0.0833333), wk =   0.0555556
        k(   19) = (  -0.2500000   0.2500000   0.2500000), wk =   0.0185185
        k(   20) = (  -0.4166667   0.4166667   0.0833333), wk =   0.0555556
        k(   21) = (   0.4166667  -0.4166667   0.9166667), wk =   0.0555556
        k(   22) = (   0.2500000  -0.2500000   0.7500000), wk =   0.0555556
        k(   23) = (  -0.2500000   0.5833333   0.2500000), wk =   0.0555556
        k(   24) = (   0.5833333  -0.2500000   1.0833333), wk =   0.1111111
        k(   25) = (   0.4166667  -0.0833333   0.9166667), wk =   0.1111111
        k(   26) = (  -0.2500000  -1.0833333   0.2500000), wk =   0.0555556
        k(   27) = (  -0.4166667   0.4166667   0.4166667), wk =   0.0185185
        k(   28) = (   0.4166667  -0.4166667   1.2500000), wk =   0.0555556

     Dense  grid:     5601 G-vectors     FFT dimensions: (  32,  32,  32)

     Estimated max dynamical RAM per process >       3.66 MB

     Estimated total dynamical RAM >      29.27 MB

     Check: negative core charge=   -0.000003

     Initial potential from superposition of free atoms

     starting charge       7.9989, renormalised to       8.0000
     Starting wfcs are    8 randomized atomic wfcs
     Checking if some PAW data can be deallocated... 

     total cpu time spent up to now is        0.2 secs

     Self-consistent Calculation

     iteration #  1     ecut=    30.00 Ry     beta= 0.60
     Davidson diagonalization with overlap
     ethr =  1.00E-02,  avg # of iterations =  2.0

     Threshold (ethr) on eigenvalues was too large:
     Diagonalizing with lowered threshold

     Davidson diagonalization with overlap
     ethr =  6.93E-04,  avg # of iterations =  1.3

     total cpu time spent up to now is        0.3 secs

     total energy              =     -93.44454044 Ry
     estimated scf accuracy    <       0.05995138 Ry

     iteration #  2     ecut=    30.00 Ry     beta= 0.60
     Davidson diagonalization with overlap
     ethr =  7.49E-04,  avg # of iterations =  1.0

     total cpu time spent up to now is        0.4 secs

     total energy              =     -93.44547909 Ry
     estimated scf accuracy    <       0.00643058 Ry

     iteration #  3     ecut=    30.00 Ry     beta= 0.60
     Davidson diagonalization with overlap
     ethr =  8.04E-05,  avg # of iterations =  2.0

     total cpu time spent up to now is        0.5 secs

     total energy              =     -93.44665690 Ry
     estimated scf accuracy    <       0.00018030 Ry

     iteration #  4     ecut=    30.00 Ry     beta= 0.60
     Davidson diagonalization with overlap
     ethr =  2.25E-06,  avg # of iterations =  4.0

     total cpu time spent up to now is        0.6 secs

     total energy              =     -93.44676232 Ry
     estimated scf accuracy    <       0.00003138 Ry

     iteration #  5     ecut=    30.00 Ry     beta= 0.60
     Davidson diagonalization with overlap
     ethr =  3.92E-07,  avg # of iterations =  3.2

     total cpu time spent up to now is        0.7 secs

     End of self-consistent calculation

          k =-0.0833 0.0833 0.0833 (   706 PWs)   bands (ev):

    -5.4217   6.0405   6.7538   6.7538

          k =-0.2500 0.2500-0.0833 (   696 PWs)   bands (ev):

    -4.9156   3.8968   5.4319   6.5427

          k =-0.4167 0.4167-0.2500 (   703 PWs)   bands (ev):

    -3.7470   0.9685   4.9648   5.8668

          k = 0.4167-0.4167 0.5833 (   707 PWs)   bands (ev):

    -2.9804  -0.2676   5.0505   5.4566

          k = 0.2500-0.2500 0.4167 (   707 PWs)   bands (ev):

    -4.1899   1.8693   5.5084   5.5817

          k = 0.0833-0.0833 0.2500 (   697 PWs)   bands (ev):

    -5.1664   4.9587   6.0541   6.2874

          k =-0.0833 0.4167 0.0833 (   700 PWs)   bands (ev):

    -4.6600   3.7580   5.2753   5.2862

          k =-0.2500 0.5833-0.0833 (   696 PWs)   bands (ev):

    -3.6903   1.8318   3.8601   4.8693

          k = 0.5833-0.2500 0.7500 (   704 PWs)   bands (ev):

    -2.4764  -0.0722   3.2453   4.6180

          k = 0.4167-0.0833 0.5833 (   700 PWs)   bands (ev):

    -3.2646   1.0830   3.1709   5.1488

          k = 0.2500 0.0833 0.4167 (   704 PWs)   bands (ev):

    -4.4194   2.8458   4.6063   5.8796

          k =-0.0833 0.7500 0.0833 (   698 PWs)   bands (ev):

    -2.9368   1.0050   3.8079   4.1857

          k = 0.7500-0.0833 0.9167 (   704 PWs)   bands (ev):

    -1.6547  -0.4103   2.8850   3.7353

          k = 0.5833 0.0833 0.7500 (   702 PWs)   bands (ev):

    -2.0307  -0.0933   2.3754   4.3219

          k = 0.4167 0.2500 0.5833 (   703 PWs)   bands (ev):

    -3.1360   0.2954   4.2208   5.2586

          k =-0.0833-0.9167 0.0833 (   712 PWs)   bands (ev):

    -1.7621  -0.4237   3.5187   3.9583

          k =-0.2500-0.7500-0.0833 (   705 PWs)   bands (ev):

    -2.7520   0.7604   3.2469   4.0973

          k =-0.0833-0.5833 0.0833 (   704 PWs)   bands (ev):

    -3.9116   2.4332   4.3992   4.6322

          k =-0.2500 0.2500 0.2500 (   697 PWs)   bands (ev):

    -4.6710   2.8478   6.1048   6.1048

          k =-0.4167 0.4167 0.0833 (   701 PWs)   bands (ev):

    -3.9470   1.9129   3.8236   5.9319

          k = 0.4167-0.4167 0.9167 (   701 PWs)   bands (ev):

    -2.6787   0.4168   2.6269   5.0841

          k = 0.2500-0.2500 0.7500 (   701 PWs)   bands (ev):

    -2.6272   0.3348   3.1539   4.5649

          k =-0.2500 0.5833 0.2500 (   705 PWs)   bands (ev):

    -3.4927   1.0452   4.3603   4.9625

          k = 0.5833-0.2500 1.0833 (   703 PWs)   bands (ev):

    -2.4186   0.3297   2.7285   4.0858

          k = 0.4167-0.0833 0.9167 (   706 PWs)   bands (ev):

    -1.5272  -0.4184   2.5260   3.3609

          k =-0.2500-1.0833 0.2500 (   703 PWs)   bands (ev):

    -1.7492  -0.3412   2.3914   4.3581

          k =-0.4167 0.4167 0.4167 (   709 PWs)   bands (ev):

    -3.3862   0.1629   5.7018   5.7018

          k = 0.4167-0.4167 1.2500 (   698 PWs)   bands (ev):

    -2.7314  -0.1371   3.7625   5.2223

     highest occupied level (ev):     6.7538

!    total energy              =     -93.44677171 Ry
     total all-electron energy =     -1160.138502 Ry
     estimated scf accuracy    <       0.00000075 Ry

     The total energy is the sum of the following terms:
     one-electron contribution =       6.26257691 Ry
     hartree contribution      =       1.04329808 Ry
     xc contribution           =     -12.38960172 Ry
     ewald contribution        =     -17.16482456 Ry
     one-center paw contrib.   =     -71.19822043 Ry

     convergence has been achieved in   5 iterations

     Writing all to output data dir ./silicon.save/
 
     init_run     :      0.09s CPU      0.10s WALL (       1 calls)
     electrons    :      0.47s CPU      0.53s WALL (       1 calls)

     Called by init_run:
     wfcinit      :      0.01s CPU      0.01s WALL (       1 calls)
     potinit      :      0.06s CPU      0.06s WALL (       1 calls)
     hinit0       :      0.01s CPU      0.02s WALL (       1 calls)

     Called by electrons:
     c_bands      :      0.16s CPU      0.18s WALL (       6 calls)
     sum_band     :      0.04s CPU      0.04s WALL (       6 calls)
     v_of_rho     :      0.01s CPU      0.01s WALL (       6 calls)
     newd         :      0.01s CPU      0.01s WALL (       6 calls)
     PAW_pot      :      0.30s CPU      0.35s WALL (       6 calls)
     mix_rho      :      0.00s CPU      0.00s WALL (       6 calls)

     Called by c_bands:
     init_us_2    :      0.01s CPU      0.01s WALL (     364 calls)
     init_us_2:cp :      0.01s CPU      0.01s WALL (     364 calls)
     cegterg      :      0.10s CPU      0.11s WALL (     168 calls)

     Called by *egterg:
     cdiaghg      :      0.01s CPU      0.01s WALL (     519 calls)
     h_psi        :      0.08s CPU      0.09s WALL (     575 calls)
     s_psi        :      0.00s CPU      0.00s WALL (     575 calls)
     g_psi        :      0.00s CPU      0.00s WALL (     379 calls)

     Called by h_psi:
     h_psi:calbec :      0.01s CPU      0.01s WALL (     575 calls)
     vloc_psi     :      0.07s CPU      0.08s WALL (     575 calls)
     add_vuspsi   :      0.00s CPU      0.00s WALL (     575 calls)

     General routines
     calbec       :      0.01s CPU      0.01s WALL (     743 calls)
     fft          :      0.00s CPU      0.00s WALL (      67 calls)
     ffts         :      0.00s CPU      0.00s WALL (       6 calls)
     fftw         :      0.07s CPU      0.08s WALL (    4920 calls)
 
     Parallel routines
 
     PWSCF        :      0.62s CPU      0.71s WALL

 
   This run was terminated on:  17:42:16  13Mar2026            

=------------------------------------------------------------------------------=
   JOB DONE.
=------------------------------------------------------------------------------=
