
     Program PWSCF v.7.1 starts on 13Mar2026 at 17:42:19 

     This program is part of the open-source Quantum ESPRESSO suite
     for quantum simulation of materials; please cite
         "P. Giannozzi et al., J. Phys.:Condens. Matter 21 395502 (2009);
         "P. Giannozzi et al., J. Phys.:Condens. Matter 29 465901 (2017);
         "P. Giannozzi et al., J. Chem. Phys. 152 154105 (2020);
          URL http://www.quantum-espresso.org", 
     in publications or presentations arising from this work. More details at
     http://www.quantum-espresso.org/quote

     Parallel version (MPI), running on     8 processors

     MPI processes distributed on     1 nodes
     11514 MiB available memory on the printing compute node when the environment starts
 
     Reading input from scf.in

     Current dimensions of program PWSCF are:
     Max number of different atomic species (ntypx) = 10
     Max number of k-points (npk) =  40000
     Max angular momentum in pseudopotentials (lmaxx) =  4
     file Si.pbe-n-kjpaw_psl.1.0.0.UPF: wavefunction(s)  3S 3P renormalized
 
     R & G space division:  proc/nbgrp/npool/nimage =       8
     Subspace diagonalization in iterative solution of the eigenvalue problem:
     a serial algorithm will be used

 
     Parallelization info
     --------------------
     sticks:   dense  smooth     PW     G-vecs:    dense   smooth      PW
     Min          54      54     18                  744      744     142
     Max          55      55     20                  747      747     143
     Sum         433     433    151                 5961     5961    1139
 
     Using Slab Decomposition
 


     bravais-lattice index     =            2
     lattice parameter (alat)  =      10.1978  a.u.
     unit-cell volume          =     265.1291 (a.u.)^3
     number of atoms/cell      =            2
     number of atomic types    =            1
     number of electrons       =         8.00
     number of Kohn-Sham states=            4
     kinetic-energy cutoff     =      30.0000  Ry
     charge density cutoff     =     120.0000  Ry
     scf convergence threshold =      1.0E-06
     mixing beta               =       0.6000
     number of iterations used =            8  plain     mixing
     Exchange-correlation= SLA  PW   PBX  PBC
                           (   1   4   3   4   0   0   0)

     celldm(1)=  10.197784  celldm(2)=   0.000000  celldm(3)=   0.000000
     celldm(4)=   0.000000  celldm(5)=   0.000000  celldm(6)=   0.000000

     crystal axes: (cart. coord. in units of alat)
               a(1) = (  -0.500000   0.000000   0.500000 )  
               a(2) = (   0.000000   0.500000   0.500000 )  
               a(3) = (  -0.500000   0.500000   0.000000 )  

     reciprocal axes: (cart. coord. in units 2 pi/alat)
               b(1) = ( -1.000000 -1.000000  1.000000 )  
               b(2) = (  1.000000  1.000000  1.000000 )  
               b(3) = ( -1.000000  1.000000 -1.000000 )  


     PseudoPot. # 1 for Si read from file:
     /home/karan/pseudos/Si.pbe-n-kjpaw_psl.1.0.0.UPF
     MD5 check sum: c39c59da582df4a0d9f10159256ea34e
     Pseudo is Projector augmented-wave + core cor, Zval =  4.0
     Generated using &quot;atomic&quot; code by A. Dal Corso  v.6.3
     Shape of augmentation charge: PSQ
     Using radial grid of 1141 points,  6 beta functions with: 
                l(1) =   0
                l(2) =   0
                l(3) =   1
                l(4) =   1
                l(5) =   2
                l(6) =   2
     Q(r) pseudized with 0 coefficients 


     atomic species   valence    mass     pseudopotential
        Si             4.00    28.08600     Si( 1.00)

     48 Sym. Ops., with inversion, found (24 have fractional translation)



   Cartesian axes

     site n.     atom                  positions (alat units)
         1           Si  tau(   1) = (   0.0000000   0.0000000   0.0000000  )
         2           Si  tau(   2) = (   0.2500000   0.2500000   0.2500000  )

     number of k points=    28
                       cart. coord. in units 2pi/alat
        k(    1) = (  -0.0833333   0.0833333   0.0833333), wk =   0.0185185
        k(    2) = (  -0.2500000   0.2500000  -0.0833333), wk =   0.0555556
        k(    3) = (  -0.4166667   0.4166667  -0.2500000), wk =   0.0555556
        k(    4) = (   0.4166667  -0.4166667   0.5833333), wk =   0.0555556
        k(    5) = (   0.2500000  -0.2500000   0.4166667), wk =   0.0555556
        k(    6) = (   0.0833333  -0.0833333   0.2500000), wk =   0.0555556
        k(    7) = (  -0.0833333   0.4166667   0.0833333), wk =   0.0555556
        k(    8) = (  -0.2500000   0.5833333  -0.0833333), wk =   0.1111111
        k(    9) = (   0.5833333  -0.2500000   0.7500000), wk =   0.1111111
        k(   10) = (   0.4166667  -0.0833333   0.5833333), wk =   0.1111111
        k(   11) = (   0.2500000   0.0833333   0.4166667), wk =   0.1111111
        k(   12) = (  -0.0833333   0.7500000   0.0833333), wk =   0.0555556
        k(   13) = (   0.7500000  -0.0833333   0.9166667), wk =   0.1111111
        k(   14) = (   0.5833333   0.0833333   0.7500000), wk =   0.1111111
        k(   15) = (   0.4166667   0.2500000   0.5833333), wk =   0.1111111
        k(   16) = (  -0.0833333  -0.9166667   0.0833333), wk =   0.0555556
        k(   17) = (  -0.2500000  -0.7500000  -0.0833333), wk =   0.1111111
        k(   18) = (  -0.0833333  -0.5833333   0.0833333), wk =   0.0555556
        k(   19) = (  -0.2500000   0.2500000   0.2500000), wk =   0.0185185
        k(   20) = (  -0.4166667   0.4166667   0.0833333), wk =   0.0555556
        k(   21) = (   0.4166667  -0.4166667   0.9166667), wk =   0.0555556
        k(   22) = (   0.2500000  -0.2500000   0.7500000), wk =   0.0555556
        k(   23) = (  -0.2500000   0.5833333   0.2500000), wk =   0.0555556
        k(   24) = (   0.5833333  -0.2500000   1.0833333), wk =   0.1111111
        k(   25) = (   0.4166667  -0.0833333   0.9166667), wk =   0.1111111
        k(   26) = (  -0.2500000  -1.0833333   0.2500000), wk =   0.0555556
        k(   27) = (  -0.4166667   0.4166667   0.4166667), wk =   0.0185185
        k(   28) = (   0.4166667  -0.4166667   1.2500000), wk =   0.0555556

     Dense  grid:     5961 G-vectors     FFT dimensions: (  32,  32,  32)

     Estimated max dynamical RAM per process >       3.83 MB

     Estimated total dynamical RAM >      30.60 MB

     Check: negative core charge=   -0.000003

     Initial potential from superposition of free atoms

     starting charge       7.9989, renormalised to       8.0000
     Starting wfcs are    8 randomized atomic wfcs
     Checking if some PAW data can be deallocated... 

     total cpu time spent up to now is        0.2 secs

     Self-consistent Calculation

     iteration #  1     ecut=    30.00 Ry     beta= 0.60
     Davidson diagonalization with overlap
     ethr =  1.00E-02,  avg # of iterations =  2.0

     Threshold (ethr) on eigenvalues was too large:
     Diagonalizing with lowered threshold

     Davidson diagonalization with overlap
     ethr =  6.42E-04,  avg # of iterations =  1.4

     total cpu time spent up to now is        0.3 secs

     total energy              =     -93.45012515 Ry
     estimated scf accuracy    <       0.05563511 Ry

     iteration #  2     ecut=    30.00 Ry     beta= 0.60
     Davidson diagonalization with overlap
     ethr =  6.95E-04,  avg # of iterations =  1.0

     total cpu time spent up to now is        0.4 secs

     total energy              =     -93.45090785 Ry
     estimated scf accuracy    <       0.00620706 Ry

     iteration #  3     ecut=    30.00 Ry     beta= 0.60
     Davidson diagonalization with overlap
     ethr =  7.76E-05,  avg # of iterations =  2.1

     total cpu time spent up to now is        0.5 secs

     total energy              =     -93.45190591 Ry
     estimated scf accuracy    <       0.00015335 Ry

     iteration #  4     ecut=    30.00 Ry     beta= 0.60
     Davidson diagonalization with overlap
     ethr =  1.92E-06,  avg # of iterations =  4.4

     total cpu time spent up to now is        0.6 secs

     total energy              =     -93.45201949 Ry
     estimated scf accuracy    <       0.00001844 Ry

     iteration #  5     ecut=    30.00 Ry     beta= 0.60
     Davidson diagonalization with overlap
     ethr =  2.30E-07,  avg # of iterations =  3.5

     total cpu time spent up to now is        0.7 secs

     End of self-consistent calculation

          k =-0.0833 0.0833 0.0833 (   731 PWs)   bands (ev):

    -5.5972   5.5458   6.2596   6.2596

          k =-0.2500 0.2500-0.0833 (   739 PWs)   bands (ev):

    -5.1110   3.4441   4.9938   6.0491

          k =-0.4167 0.4167-0.2500 (   745 PWs)   bands (ev):

    -3.9937   0.6254   4.5289   5.3986

          k = 0.4167-0.4167 0.5833 (   743 PWs)   bands (ev):

    -3.2729  -0.5494   4.6021   5.0078

          k = 0.2500-0.2500 0.4167 (   742 PWs)   bands (ev):

    -4.4157   1.4902   5.0649   5.1122

          k = 0.0833-0.0833 0.2500 (   731 PWs)   bands (ev):

    -5.3518   4.4733   5.5949   5.7975

          k =-0.0833 0.4167 0.0833 (   736 PWs)   bands (ev):

    -4.8651   3.2740   4.8414   4.8480

          k =-0.2500 0.5833-0.0833 (   737 PWs)   bands (ev):

    -3.9353   1.4047   3.4862   4.4547

          k = 0.5833-0.2500 0.7500 (   733 PWs)   bands (ev):

    -2.7869  -0.3976   2.8800   4.2193

          k = 0.4167-0.0833 0.5833 (   739 PWs)   bands (ev):

    -3.5306   0.6928   2.8272   4.7210

          k = 0.2500 0.0833 0.4167 (   737 PWs)   bands (ev):

    -4.6347   2.4109   4.2002   5.4108

          k =-0.0833 0.7500 0.0833 (   735 PWs)   bands (ev):

    -3.2101   0.5775   3.4454   3.7985

          k = 0.7500-0.0833 0.9167 (   736 PWs)   bands (ev):

    -1.9857  -0.7877   2.5757   3.3768

          k = 0.5833 0.0833 0.7500 (   730 PWs)   bands (ev):

    -2.3584  -0.4581   2.0831   3.9364

          k = 0.4167 0.2500 0.5833 (   737 PWs)   bands (ev):

    -3.4130  -0.0271   3.8065   4.8230

          k =-0.0833-0.9167 0.0833 (   736 PWs)   bands (ev):

    -2.0827  -0.7974   3.1692   3.5791

          k =-0.2500-0.7500-0.0833 (   737 PWs)   bands (ev):

    -3.0361   0.3470   2.9108   3.7246

          k =-0.0833-0.5833 0.0833 (   732 PWs)   bands (ev):

    -4.1460   1.9645   4.0060   4.2290

          k =-0.2500 0.2500 0.2500 (   745 PWs)   bands (ev):

    -4.8765   2.4408   5.6336   5.6336

          k =-0.4167 0.4167 0.0833 (   740 PWs)   bands (ev):

    -4.1827   1.5077   3.4500   5.4631

          k = 0.4167-0.4167 0.9167 (   734 PWs)   bands (ev):

    -2.9744   0.0483   2.3124   4.6556

          k = 0.2500-0.2500 0.7500 (   735 PWs)   bands (ev):

    -2.9224  -0.0318   2.8076   4.1607

          k =-0.2500 0.5833 0.2500 (   738 PWs)   bands (ev):

    -3.7488   0.6796   3.9396   4.5423

          k = 0.5833-0.2500 1.0833 (   732 PWs)   bands (ev):

    -2.7231  -0.0559   2.4130   3.7191

          k = 0.4167-0.0833 0.9167 (   732 PWs)   bands (ev):

    -1.8722  -0.7956   2.2361   3.0321

          k =-0.2500-1.0833 0.2500 (   732 PWs)   bands (ev):

    -2.0866  -0.7070   2.1070   3.9620

          k =-0.4167 0.4167 0.4167 (   739 PWs)   bands (ev):

    -3.6541  -0.1392   5.2402   5.2402

          k = 0.4167-0.4167 1.2500 (   737 PWs)   bands (ev):

    -3.0329  -0.4398   3.3697   4.7863

     highest occupied level (ev):     6.2596

!    total energy              =     -93.45202749 Ry
     total all-electron energy =     -1160.143757 Ry
     estimated scf accuracy    <       0.00000060 Ry

     The total energy is the sum of the following terms:
     one-electron contribution =       5.88952684 Ry
     hartree contribution      =       1.08342994 Ry
     xc contribution           =     -12.33168144 Ry
     ewald contribution        =     -16.90343129 Ry
     one-center paw contrib.   =     -71.18987156 Ry

     convergence has been achieved in   5 iterations

     Writing all to output data dir ./silicon.save/
 
     init_run     :      0.07s CPU      0.09s WALL (       1 calls)
     electrons    :      0.47s CPU      0.53s WALL (       1 calls)

     Called by init_run:
     wfcinit      :      0.01s CPU      0.01s WALL (       1 calls)
     potinit      :      0.04s CPU      0.06s WALL (       1 calls)
     hinit0       :      0.01s CPU      0.02s WALL (       1 calls)

     Called by electrons:
     c_bands      :      0.19s CPU      0.19s WALL (       6 calls)
     sum_band     :      0.04s CPU      0.05s WALL (       6 calls)
     v_of_rho     :      0.00s CPU      0.01s WALL (       6 calls)
     newd         :      0.01s CPU      0.01s WALL (       6 calls)
     PAW_pot      :      0.27s CPU      0.33s WALL (       6 calls)
     mix_rho      :      0.00s CPU      0.00s WALL (       6 calls)

     Called by c_bands:
     init_us_2    :      0.01s CPU      0.01s WALL (     364 calls)
     init_us_2:cp :      0.01s CPU      0.01s WALL (     364 calls)
     cegterg      :      0.11s CPU      0.11s WALL (     168 calls)

     Called by *egterg:
     cdiaghg      :      0.01s CPU      0.01s WALL (     540 calls)
     h_psi        :      0.09s CPU      0.09s WALL (     596 calls)
     s_psi        :      0.00s CPU      0.00s WALL (     596 calls)
     g_psi        :      0.00s CPU      0.00s WALL (     400 calls)

     Called by h_psi:
     h_psi:calbec :      0.01s CPU      0.01s WALL (     596 calls)
     vloc_psi     :      0.08s CPU      0.08s WALL (     596 calls)
     add_vuspsi   :      0.00s CPU      0.00s WALL (     596 calls)

     General routines
     calbec       :      0.01s CPU      0.01s WALL (     764 calls)
     fft          :      0.00s CPU      0.00s WALL (      67 calls)
     ffts         :      0.00s CPU      0.00s WALL (       6 calls)
     fftw         :      0.08s CPU      0.08s WALL (    4972 calls)
 
     Parallel routines
 
     PWSCF        :      0.63s CPU      0.72s WALL

 
   This run was terminated on:  17:42:20  13Mar2026            

=------------------------------------------------------------------------------=
   JOB DONE.
=------------------------------------------------------------------------------=
