
     Program PWSCF v.7.1 starts on 13Mar2026 at 17:42:31 

     This program is part of the open-source Quantum ESPRESSO suite
     for quantum simulation of materials; please cite
         "P. Giannozzi et al., J. Phys.:Condens. Matter 21 395502 (2009);
         "P. Giannozzi et al., J. Phys.:Condens. Matter 29 465901 (2017);
         "P. Giannozzi et al., J. Chem. Phys. 152 154105 (2020);
          URL http://www.quantum-espresso.org", 
     in publications or presentations arising from this work. More details at
     http://www.quantum-espresso.org/quote

     Parallel version (MPI), running on     8 processors

     MPI processes distributed on     1 nodes
     11516 MiB available memory on the printing compute node when the environment starts
 
     Reading input from scf.in

     Current dimensions of program PWSCF are:
     Max number of different atomic species (ntypx) = 10
     Max number of k-points (npk) =  40000
     Max angular momentum in pseudopotentials (lmaxx) =  4
     file Si.pbe-n-kjpaw_psl.1.0.0.UPF: wavefunction(s)  3S 3P renormalized
 
     R & G space division:  proc/nbgrp/npool/nimage =       8
     Subspace diagonalization in iterative solution of the eigenvalue problem:
     a serial algorithm will be used

 
     Parallelization info
     --------------------
     sticks:   dense  smooth     PW     G-vecs:    dense   smooth      PW
     Min          59      59     18                  841      841     153
     Max          60      60     19                  842      842     156
     Sum         475     475    151                 6735     6735    1243
 
     Using Slab Decomposition
 


     bravais-lattice index     =            2
     lattice parameter (alat)  =      10.6637  a.u.
     unit-cell volume          =     303.1520 (a.u.)^3
     number of atoms/cell      =            2
     number of atomic types    =            1
     number of electrons       =         8.00
     number of Kohn-Sham states=            4
     kinetic-energy cutoff     =      30.0000  Ry
     charge density cutoff     =     120.0000  Ry
     scf convergence threshold =      1.0E-06
     mixing beta               =       0.6000
     number of iterations used =            8  plain     mixing
     Exchange-correlation= SLA  PW   PBX  PBC
                           (   1   4   3   4   0   0   0)

     celldm(1)=  10.663672  celldm(2)=   0.000000  celldm(3)=   0.000000
     celldm(4)=   0.000000  celldm(5)=   0.000000  celldm(6)=   0.000000

     crystal axes: (cart. coord. in units of alat)
               a(1) = (  -0.500000   0.000000   0.500000 )  
               a(2) = (   0.000000   0.500000   0.500000 )  
               a(3) = (  -0.500000   0.500000   0.000000 )  

     reciprocal axes: (cart. coord. in units 2 pi/alat)
               b(1) = ( -1.000000 -1.000000  1.000000 )  
               b(2) = (  1.000000  1.000000  1.000000 )  
               b(3) = ( -1.000000  1.000000 -1.000000 )  


     PseudoPot. # 1 for Si read from file:
     /home/karan/pseudos/Si.pbe-n-kjpaw_psl.1.0.0.UPF
     MD5 check sum: c39c59da582df4a0d9f10159256ea34e
     Pseudo is Projector augmented-wave + core cor, Zval =  4.0
     Generated using &quot;atomic&quot; code by A. Dal Corso  v.6.3
     Shape of augmentation charge: PSQ
     Using radial grid of 1141 points,  6 beta functions with: 
                l(1) =   0
                l(2) =   0
                l(3) =   1
                l(4) =   1
                l(5) =   2
                l(6) =   2
     Q(r) pseudized with 0 coefficients 


     atomic species   valence    mass     pseudopotential
        Si             4.00    28.08600     Si( 1.00)

     48 Sym. Ops., with inversion, found (24 have fractional translation)



   Cartesian axes

     site n.     atom                  positions (alat units)
         1           Si  tau(   1) = (   0.0000000   0.0000000   0.0000000  )
         2           Si  tau(   2) = (   0.2500000   0.2500000   0.2500000  )

     number of k points=    28
                       cart. coord. in units 2pi/alat
        k(    1) = (  -0.0833333   0.0833333   0.0833333), wk =   0.0185185
        k(    2) = (  -0.2500000   0.2500000  -0.0833333), wk =   0.0555556
        k(    3) = (  -0.4166667   0.4166667  -0.2500000), wk =   0.0555556
        k(    4) = (   0.4166667  -0.4166667   0.5833333), wk =   0.0555556
        k(    5) = (   0.2500000  -0.2500000   0.4166667), wk =   0.0555556
        k(    6) = (   0.0833333  -0.0833333   0.2500000), wk =   0.0555556
        k(    7) = (  -0.0833333   0.4166667   0.0833333), wk =   0.0555556
        k(    8) = (  -0.2500000   0.5833333  -0.0833333), wk =   0.1111111
        k(    9) = (   0.5833333  -0.2500000   0.7500000), wk =   0.1111111
        k(   10) = (   0.4166667  -0.0833333   0.5833333), wk =   0.1111111
        k(   11) = (   0.2500000   0.0833333   0.4166667), wk =   0.1111111
        k(   12) = (  -0.0833333   0.7500000   0.0833333), wk =   0.0555556
        k(   13) = (   0.7500000  -0.0833333   0.9166667), wk =   0.1111111
        k(   14) = (   0.5833333   0.0833333   0.7500000), wk =   0.1111111
        k(   15) = (   0.4166667   0.2500000   0.5833333), wk =   0.1111111
        k(   16) = (  -0.0833333  -0.9166667   0.0833333), wk =   0.0555556
        k(   17) = (  -0.2500000  -0.7500000  -0.0833333), wk =   0.1111111
        k(   18) = (  -0.0833333  -0.5833333   0.0833333), wk =   0.0555556
        k(   19) = (  -0.2500000   0.2500000   0.2500000), wk =   0.0185185
        k(   20) = (  -0.4166667   0.4166667   0.0833333), wk =   0.0555556
        k(   21) = (   0.4166667  -0.4166667   0.9166667), wk =   0.0555556
        k(   22) = (   0.2500000  -0.2500000   0.7500000), wk =   0.0555556
        k(   23) = (  -0.2500000   0.5833333   0.2500000), wk =   0.0555556
        k(   24) = (   0.5833333  -0.2500000   1.0833333), wk =   0.1111111
        k(   25) = (   0.4166667  -0.0833333   0.9166667), wk =   0.1111111
        k(   26) = (  -0.2500000  -1.0833333   0.2500000), wk =   0.0555556
        k(   27) = (  -0.4166667   0.4166667   0.4166667), wk =   0.0185185
        k(   28) = (   0.4166667  -0.4166667   1.2500000), wk =   0.0555556

     Dense  grid:     6735 G-vectors     FFT dimensions: (  32,  32,  32)

     Estimated max dynamical RAM per process >       4.17 MB

     Estimated total dynamical RAM >      33.37 MB

     Check: negative core charge=   -0.000003

     Initial potential from superposition of free atoms

     starting charge       7.9989, renormalised to       8.0000
     Starting wfcs are    8 randomized atomic wfcs
     Checking if some PAW data can be deallocated... 

     total cpu time spent up to now is        0.2 secs

     Self-consistent Calculation

     iteration #  1     ecut=    30.00 Ry     beta= 0.60
     Davidson diagonalization with overlap
     ethr =  1.00E-02,  avg # of iterations =  2.0

     Threshold (ethr) on eigenvalues was too large:
     Diagonalizing with lowered threshold

     Davidson diagonalization with overlap
     ethr =  5.12E-04,  avg # of iterations =  1.8

     total cpu time spent up to now is        0.3 secs

     total energy              =     -93.44548301 Ry
     estimated scf accuracy    <       0.04441333 Ry

     iteration #  2     ecut=    30.00 Ry     beta= 0.60
     Davidson diagonalization with overlap
     ethr =  5.55E-04,  avg # of iterations =  1.0

     total cpu time spent up to now is        0.4 secs

     total energy              =     -93.44589872 Ry
     estimated scf accuracy    <       0.00555657 Ry

     iteration #  3     ecut=    30.00 Ry     beta= 0.60
     Davidson diagonalization with overlap
     ethr =  6.95E-05,  avg # of iterations =  2.0

     total cpu time spent up to now is        0.5 secs

     total energy              =     -93.44652093 Ry
     estimated scf accuracy    <       0.00009506 Ry

     iteration #  4     ecut=    30.00 Ry     beta= 0.60
     Davidson diagonalization with overlap
     ethr =  1.19E-06,  avg # of iterations =  5.1

     total cpu time spent up to now is        0.6 secs

     total energy              =     -93.44663889 Ry
     estimated scf accuracy    <       0.00000383 Ry

     iteration #  5     ecut=    30.00 Ry     beta= 0.60
     Davidson diagonalization with overlap
     ethr =  4.78E-08,  avg # of iterations =  4.6

     total cpu time spent up to now is        0.7 secs

     End of self-consistent calculation

          k =-0.0833 0.0833 0.0833 (   872 PWs)   bands (ev):

    -6.0664   4.1783   4.9340   4.9340

          k =-0.2500 0.2500-0.0833 (   847 PWs)   bands (ev):

    -5.6350   2.1856   3.8228   4.7298

          k =-0.4167 0.4167-0.2500 (   842 PWs)   bands (ev):

    -4.6582  -0.3233   3.3656   4.1502

          k = 0.4167-0.4167 0.5833 (   838 PWs)   bands (ev):

    -4.0562  -1.3341   3.4067   3.8111

          k = 0.2500-0.2500 0.4167 (   846 PWs)   bands (ev):

    -5.0234   0.4410   3.8603   3.8791

          k = 0.0833-0.0833 0.2500 (   856 PWs)   bands (ev):

    -5.8483   3.1176   4.3627   4.4911

          k =-0.0833 0.4167 0.0833 (   848 PWs)   bands (ev):

    -5.4160   1.9297   3.6634   3.7043

          k =-0.2500 0.5833-0.0833 (   843 PWs)   bands (ev):

    -4.5961   0.2280   2.4954   3.3467

          k = 0.5833-0.2500 0.7500 (   838 PWs)   bands (ev):

    -3.6199  -1.3056   1.9205   3.1514

          k = 0.4167-0.0833 0.5833 (   841 PWs)   bands (ev):

    -4.2477  -0.3843   1.9195   3.5771

          k = 0.2500 0.0833 0.4167 (   845 PWs)   bands (ev):

    -5.2137   1.2035   3.1194   4.1600

          k =-0.0833 0.7500 0.0833 (   839 PWs)   bands (ev):

    -3.9488  -0.5842   2.4766   2.7665

          k = 0.7500-0.0833 0.9167 (   840 PWs)   bands (ev):

    -2.8804  -1.8091   1.7467   2.4185

          k = 0.5833 0.0833 0.7500 (   841 PWs)   bands (ev):

    -3.2386  -1.4589   1.3074   2.9049

          k = 0.4167 0.2500 0.5833 (   839 PWs)   bands (ev):

    -4.1586  -0.9228   2.7080   3.6593

          k =-0.0833-0.9167 0.0833 (   826 PWs)   bands (ev):

    -2.9512  -1.8114   2.2355   2.5694

          k =-0.2500-0.7500-0.0833 (   839 PWs)   bands (ev):

    -3.8037  -0.7778   2.0159   2.7260

          k =-0.0833-0.5833 0.0833 (   842 PWs)   bands (ev):

    -4.7780   0.6818   2.9578   3.1524

          k =-0.2500 0.2500 0.2500 (   851 PWs)   bands (ev):

    -5.4285   1.3142   4.3735   4.3735

          k =-0.4167 0.4167 0.0833 (   843 PWs)   bands (ev):

    -4.8176   0.3852   2.4600   4.2116

          k = 0.4167-0.4167 0.9167 (   840 PWs)   bands (ev):

    -3.7705  -0.9685   1.4827   3.5117

          k = 0.2500-0.2500 0.7500 (   842 PWs)   bands (ev):

    -3.7181  -1.0435   1.8938   3.0826

          k =-0.2500 0.5833 0.2500 (   839 PWs)   bands (ev):

    -4.4390  -0.3340   2.8268   3.4200

          k = 0.5833-0.2500 1.0833 (   843 PWs)   bands (ev):

    -3.5438  -1.1115   1.5787   2.7345

          k = 0.4167-0.0833 0.9167 (   841 PWs)   bands (ev):

    -2.8004  -1.8165   1.4596   2.1483

          k =-0.2500-1.0833 0.2500 (   834 PWs)   bands (ev):

    -2.9936  -1.7037   1.3458   2.9062

          k =-0.4167 0.4167 0.4167 (   847 PWs)   bands (ev):

    -4.3744  -0.9741   4.0097   4.0097

          k = 0.4167-0.4167 1.2500 (   840 PWs)   bands (ev):

    -3.8410  -1.2857   2.3306   3.6230

     highest occupied level (ev):     4.9340

!    total energy              =     -93.44664232 Ry
     total all-electron energy =     -1160.138372 Ry
     estimated scf accuracy    <       0.00000015 Ry

     The total energy is the sum of the following terms:
     one-electron contribution =       4.85805420 Ry
     hartree contribution      =       1.20447736 Ry
     xc contribution           =     -12.17404063 Ry
     ewald contribution        =     -16.16493187 Ry
     one-center paw contrib.   =     -71.17020138 Ry

     convergence has been achieved in   5 iterations

     Writing all to output data dir ./silicon.save/
 
     init_run     :      0.08s CPU      0.09s WALL (       1 calls)
     electrons    :      0.47s CPU      0.55s WALL (       1 calls)

     Called by init_run:
     wfcinit      :      0.01s CPU      0.01s WALL (       1 calls)
     potinit      :      0.05s CPU      0.05s WALL (       1 calls)
     hinit0       :      0.01s CPU      0.02s WALL (       1 calls)

     Called by electrons:
     c_bands      :      0.19s CPU      0.20s WALL (       6 calls)
     sum_band     :      0.05s CPU      0.05s WALL (       6 calls)
     v_of_rho     :      0.01s CPU      0.01s WALL (       6 calls)
     newd         :      0.01s CPU      0.02s WALL (       6 calls)
     PAW_pot      :      0.27s CPU      0.33s WALL (       6 calls)
     mix_rho      :      0.00s CPU      0.00s WALL (       6 calls)

     Called by c_bands:
     init_us_2    :      0.01s CPU      0.01s WALL (     364 calls)
     init_us_2:cp :      0.01s CPU      0.01s WALL (     364 calls)
     cegterg      :      0.11s CPU      0.12s WALL (     168 calls)

     Called by *egterg:
     cdiaghg      :      0.01s CPU      0.01s WALL (     602 calls)
     h_psi        :      0.09s CPU      0.09s WALL (     658 calls)
     s_psi        :      0.00s CPU      0.00s WALL (     658 calls)
     g_psi        :      0.00s CPU      0.00s WALL (     462 calls)

     Called by h_psi:
     h_psi:calbec :      0.01s CPU      0.01s WALL (     658 calls)
     vloc_psi     :      0.07s CPU      0.08s WALL (     658 calls)
     add_vuspsi   :      0.00s CPU      0.00s WALL (     658 calls)

     General routines
     calbec       :      0.01s CPU      0.01s WALL (     826 calls)
     fft          :      0.00s CPU      0.00s WALL (      67 calls)
     ffts         :      0.00s CPU      0.00s WALL (       6 calls)
     fftw         :      0.07s CPU      0.08s WALL (    5160 calls)
 
     Parallel routines
 
     PWSCF        :      0.62s CPU      0.74s WALL

 
   This run was terminated on:  17:42:32  13Mar2026            

=------------------------------------------------------------------------------=
   JOB DONE.
=------------------------------------------------------------------------------=
