
     Program PWSCF v.7.1 starts on 13Mar2026 at 17:42:34 

     This program is part of the open-source Quantum ESPRESSO suite
     for quantum simulation of materials; please cite
         "P. Giannozzi et al., J. Phys.:Condens. Matter 21 395502 (2009);
         "P. Giannozzi et al., J. Phys.:Condens. Matter 29 465901 (2017);
         "P. Giannozzi et al., J. Chem. Phys. 152 154105 (2020);
          URL http://www.quantum-espresso.org", 
     in publications or presentations arising from this work. More details at
     http://www.quantum-espresso.org/quote

     Parallel version (MPI), running on     8 processors

     MPI processes distributed on     1 nodes
     11524 MiB available memory on the printing compute node when the environment starts
 
     Reading input from scf.in

     Current dimensions of program PWSCF are:
     Max number of different atomic species (ntypx) = 10
     Max number of k-points (npk) =  40000
     Max angular momentum in pseudopotentials (lmaxx) =  4
     file Si.pbe-n-kjpaw_psl.1.0.0.UPF: wavefunction(s)  3S 3P renormalized
 
     R & G space division:  proc/nbgrp/npool/nimage =       8
     Subspace diagonalization in iterative solution of the eigenvalue problem:
     a serial algorithm will be used

 
     Parallelization info
     --------------------
     sticks:   dense  smooth     PW     G-vecs:    dense   smooth      PW
     Min          59      59     20                  858      858     161
     Max          60      60     21                  861      861     162
     Sum         475     475    163                 6879     6879    1291
 
     Using Slab Decomposition
 


     bravais-lattice index     =            2
     lattice parameter (alat)  =      10.7672  a.u.
     unit-cell volume          =     312.0676 (a.u.)^3
     number of atoms/cell      =            2
     number of atomic types    =            1
     number of electrons       =         8.00
     number of Kohn-Sham states=            4
     kinetic-energy cutoff     =      30.0000  Ry
     charge density cutoff     =     120.0000  Ry
     scf convergence threshold =      1.0E-06
     mixing beta               =       0.6000
     number of iterations used =            8  plain     mixing
     Exchange-correlation= SLA  PW   PBX  PBC
                           (   1   4   3   4   0   0   0)

     celldm(1)=  10.767203  celldm(2)=   0.000000  celldm(3)=   0.000000
     celldm(4)=   0.000000  celldm(5)=   0.000000  celldm(6)=   0.000000

     crystal axes: (cart. coord. in units of alat)
               a(1) = (  -0.500000   0.000000   0.500000 )  
               a(2) = (   0.000000   0.500000   0.500000 )  
               a(3) = (  -0.500000   0.500000   0.000000 )  

     reciprocal axes: (cart. coord. in units 2 pi/alat)
               b(1) = ( -1.000000 -1.000000  1.000000 )  
               b(2) = (  1.000000  1.000000  1.000000 )  
               b(3) = ( -1.000000  1.000000 -1.000000 )  


     PseudoPot. # 1 for Si read from file:
     /home/karan/pseudos/Si.pbe-n-kjpaw_psl.1.0.0.UPF
     MD5 check sum: c39c59da582df4a0d9f10159256ea34e
     Pseudo is Projector augmented-wave + core cor, Zval =  4.0
     Generated using &quot;atomic&quot; code by A. Dal Corso  v.6.3
     Shape of augmentation charge: PSQ
     Using radial grid of 1141 points,  6 beta functions with: 
                l(1) =   0
                l(2) =   0
                l(3) =   1
                l(4) =   1
                l(5) =   2
                l(6) =   2
     Q(r) pseudized with 0 coefficients 


     atomic species   valence    mass     pseudopotential
        Si             4.00    28.08600     Si( 1.00)

     48 Sym. Ops., with inversion, found (24 have fractional translation)



   Cartesian axes

     site n.     atom                  positions (alat units)
         1           Si  tau(   1) = (   0.0000000   0.0000000   0.0000000  )
         2           Si  tau(   2) = (   0.2500000   0.2500000   0.2500000  )

     number of k points=    28
                       cart. coord. in units 2pi/alat
        k(    1) = (  -0.0833333   0.0833333   0.0833333), wk =   0.0185185
        k(    2) = (  -0.2500000   0.2500000  -0.0833333), wk =   0.0555556
        k(    3) = (  -0.4166667   0.4166667  -0.2500000), wk =   0.0555556
        k(    4) = (   0.4166667  -0.4166667   0.5833333), wk =   0.0555556
        k(    5) = (   0.2500000  -0.2500000   0.4166667), wk =   0.0555556
        k(    6) = (   0.0833333  -0.0833333   0.2500000), wk =   0.0555556
        k(    7) = (  -0.0833333   0.4166667   0.0833333), wk =   0.0555556
        k(    8) = (  -0.2500000   0.5833333  -0.0833333), wk =   0.1111111
        k(    9) = (   0.5833333  -0.2500000   0.7500000), wk =   0.1111111
        k(   10) = (   0.4166667  -0.0833333   0.5833333), wk =   0.1111111
        k(   11) = (   0.2500000   0.0833333   0.4166667), wk =   0.1111111
        k(   12) = (  -0.0833333   0.7500000   0.0833333), wk =   0.0555556
        k(   13) = (   0.7500000  -0.0833333   0.9166667), wk =   0.1111111
        k(   14) = (   0.5833333   0.0833333   0.7500000), wk =   0.1111111
        k(   15) = (   0.4166667   0.2500000   0.5833333), wk =   0.1111111
        k(   16) = (  -0.0833333  -0.9166667   0.0833333), wk =   0.0555556
        k(   17) = (  -0.2500000  -0.7500000  -0.0833333), wk =   0.1111111
        k(   18) = (  -0.0833333  -0.5833333   0.0833333), wk =   0.0555556
        k(   19) = (  -0.2500000   0.2500000   0.2500000), wk =   0.0185185
        k(   20) = (  -0.4166667   0.4166667   0.0833333), wk =   0.0555556
        k(   21) = (   0.4166667  -0.4166667   0.9166667), wk =   0.0555556
        k(   22) = (   0.2500000  -0.2500000   0.7500000), wk =   0.0555556
        k(   23) = (  -0.2500000   0.5833333   0.2500000), wk =   0.0555556
        k(   24) = (   0.5833333  -0.2500000   1.0833333), wk =   0.1111111
        k(   25) = (   0.4166667  -0.0833333   0.9166667), wk =   0.1111111
        k(   26) = (  -0.2500000  -1.0833333   0.2500000), wk =   0.0555556
        k(   27) = (  -0.4166667   0.4166667   0.4166667), wk =   0.0185185
        k(   28) = (   0.4166667  -0.4166667   1.2500000), wk =   0.0555556

     Dense  grid:     6879 G-vectors     FFT dimensions: (  32,  32,  32)

     Estimated max dynamical RAM per process >       4.23 MB

     Estimated total dynamical RAM >      33.87 MB

     Check: negative core charge=   -0.000003

     Initial potential from superposition of free atoms

     starting charge       7.9989, renormalised to       8.0000
     Starting wfcs are    8 randomized atomic wfcs
     Checking if some PAW data can be deallocated... 

     total cpu time spent up to now is        0.2 secs

     Self-consistent Calculation

     iteration #  1     ecut=    30.00 Ry     beta= 0.60
     Davidson diagonalization with overlap
     ethr =  1.00E-02,  avg # of iterations =  2.0

     Threshold (ethr) on eigenvalues was too large:
     Diagonalizing with lowered threshold

     Davidson diagonalization with overlap
     ethr =  4.86E-04,  avg # of iterations =  2.0

     total cpu time spent up to now is        0.3 secs

     total energy              =     -93.44105304 Ry
     estimated scf accuracy    <       0.04238844 Ry

     iteration #  2     ecut=    30.00 Ry     beta= 0.60
     Davidson diagonalization with overlap
     ethr =  5.30E-04,  avg # of iterations =  1.0

     total cpu time spent up to now is        0.4 secs

     total energy              =     -93.44136687 Ry
     estimated scf accuracy    <       0.00542139 Ry

     iteration #  3     ecut=    30.00 Ry     beta= 0.60
     Davidson diagonalization with overlap
     ethr =  6.78E-05,  avg # of iterations =  1.9

     total cpu time spent up to now is        0.5 secs

     total energy              =     -93.44193300 Ry
     estimated scf accuracy    <       0.00008642 Ry

     iteration #  4     ecut=    30.00 Ry     beta= 0.60
     Davidson diagonalization with overlap
     ethr =  1.08E-06,  avg # of iterations =  5.1

     total cpu time spent up to now is        0.6 secs

     total energy              =     -93.44204858 Ry
     estimated scf accuracy    <       0.00000361 Ry

     iteration #  5     ecut=    30.00 Ry     beta= 0.60
     Davidson diagonalization with overlap
     ethr =  4.51E-08,  avg # of iterations =  4.8

     total cpu time spent up to now is        0.8 secs

     End of self-consistent calculation

          k =-0.0833 0.0833 0.0833 (   881 PWs)   bands (ev):

    -6.1602   3.8928   4.6686   4.6686

          k =-0.2500 0.2500-0.0833 (   875 PWs)   bands (ev):

    -5.7400   1.9230   3.5891   4.4665

          k =-0.4167 0.4167-0.2500 (   867 PWs)   bands (ev):

    -4.7918  -0.5199   3.1338   3.9016

          k = 0.4167-0.4167 0.5833 (   861 PWs)   bands (ev):

    -4.2129  -1.4979   3.1687   3.5727

          k = 0.2500-0.2500 0.4167 (   864 PWs)   bands (ev):

    -5.1456   0.2233   3.6111   3.6424

          k = 0.0833-0.0833 0.2500 (   888 PWs)   bands (ev):

    -5.9477   2.8330   4.1161   4.2311

          k =-0.0833 0.4167 0.0833 (   869 PWs)   bands (ev):

    -5.5266   1.6507   3.4300   3.4757

          k =-0.2500 0.5833-0.0833 (   863 PWs)   bands (ev):

    -4.7292  -0.0141   2.2990   3.1256

          k = 0.5833-0.2500 0.7500 (   860 PWs)   bands (ev):

    -3.7869  -1.4948   1.7321   2.9379

          k = 0.4167-0.0833 0.5833 (   868 PWs)   bands (ev):

    -4.3921  -0.6064   1.7402   3.3488

          k = 0.2500 0.0833 0.4167 (   867 PWs)   bands (ev):

    -5.3300   0.9527   2.9046   3.9109

          k =-0.0833 0.7500 0.0833 (   863 PWs)   bands (ev):

    -4.0980  -0.8203   2.2833   2.5611

          k = 0.7500-0.0833 0.9167 (   865 PWs)   bands (ev):

    -3.0610  -2.0158   1.5808   2.2272

          k = 0.5833 0.0833 0.7500 (   864 PWs)   bands (ev):

    -3.4152  -1.6638   1.1534   2.6988

          k = 0.4167 0.2500 0.5833 (   866 PWs)   bands (ev):

    -4.3084  -1.1090   2.4906   3.4273

          k =-0.0833-0.9167 0.0833 (   866 PWs)   bands (ev):

    -3.1270  -2.0170   2.0492   2.3686

          k =-0.2500-0.7500-0.0833 (   864 PWs)   bands (ev):

    -3.9586  -1.0066   1.8377   2.5262

          k =-0.0833-0.5833 0.0833 (   859 PWs)   bands (ev):

    -4.9053   0.4194   2.7491   2.9376

          k =-0.2500 0.2500 0.2500 (   878 PWs)   bands (ev):

    -5.5393   1.0801   4.1219   4.1219

          k =-0.4167 0.4167 0.0833 (   869 PWs)   bands (ev):

    -4.9453   0.1527   2.2639   3.9622

          k = 0.4167-0.4167 0.9167 (   864 PWs)   bands (ev):

    -3.9306  -1.1779   1.3188   3.2837

          k = 0.2500-0.2500 0.7500 (   863 PWs)   bands (ev):

    -3.8784  -1.2518   1.7134   2.8677

          k =-0.2500 0.5833 0.2500 (   868 PWs)   bands (ev):

    -4.5780  -0.5443   2.6071   3.1961

          k = 0.5833-0.2500 1.0833 (   866 PWs)   bands (ev):

    -3.7090  -1.3271   1.4135   2.5372

          k = 0.4167-0.0833 0.9167 (   870 PWs)   bands (ev):

    -2.9871  -2.0230   1.3043   1.9710

          k =-0.2500-1.0833 0.2500 (   863 PWs)   bands (ev):

    -3.1759  -1.9066   1.1936   2.6960

          k =-0.4167 0.4167 0.4167 (   866 PWs)   bands (ev):

    -4.5190  -1.1472   3.7648   3.7648

          k = 0.4167-0.4167 1.2500 (   859 PWs)   bands (ev):

    -4.0028  -1.4625   2.1255   3.3912

     highest occupied level (ev):     4.6686

!    total energy              =     -93.44205231 Ry
     total all-electron energy =     -1160.133782 Ry
     estimated scf accuracy    <       0.00000011 Ry

     The total energy is the sum of the following terms:
     one-electron contribution =       4.64472229 Ry
     hartree contribution      =       1.23160393 Ry
     xc contribution           =     -12.14209566 Ry
     ewald contribution        =     -16.00949984 Ry
     one-center paw contrib.   =     -71.16678303 Ry

     convergence has been achieved in   5 iterations

     Writing all to output data dir ./silicon.save/
 
     init_run     :      0.09s CPU      0.10s WALL (       1 calls)
     electrons    :      0.52s CPU      0.59s WALL (       1 calls)

     Called by init_run:
     wfcinit      :      0.01s CPU      0.01s WALL (       1 calls)
     potinit      :      0.05s CPU      0.06s WALL (       1 calls)
     hinit0       :      0.02s CPU      0.02s WALL (       1 calls)

     Called by electrons:
     c_bands      :      0.20s CPU      0.22s WALL (       6 calls)
     sum_band     :      0.05s CPU      0.05s WALL (       6 calls)
     v_of_rho     :      0.00s CPU      0.01s WALL (       6 calls)
     newd         :      0.02s CPU      0.02s WALL (       6 calls)
     PAW_pot      :      0.30s CPU      0.34s WALL (       6 calls)
     mix_rho      :      0.00s CPU      0.00s WALL (       6 calls)

     Called by c_bands:
     init_us_2    :      0.01s CPU      0.01s WALL (     364 calls)
     init_us_2:cp :      0.01s CPU      0.01s WALL (     364 calls)
     cegterg      :      0.12s CPU      0.13s WALL (     168 calls)

     Called by *egterg:
     cdiaghg      :      0.01s CPU      0.01s WALL (     610 calls)
     h_psi        :      0.10s CPU      0.10s WALL (     666 calls)
     s_psi        :      0.00s CPU      0.00s WALL (     666 calls)
     g_psi        :      0.00s CPU      0.00s WALL (     470 calls)

     Called by h_psi:
     h_psi:calbec :      0.01s CPU      0.01s WALL (     666 calls)
     vloc_psi     :      0.08s CPU      0.09s WALL (     666 calls)
     add_vuspsi   :      0.00s CPU      0.00s WALL (     666 calls)

     General routines
     calbec       :      0.01s CPU      0.01s WALL (     834 calls)
     fft          :      0.00s CPU      0.00s WALL (      67 calls)
     ffts         :      0.00s CPU      0.00s WALL (       6 calls)
     fftw         :      0.08s CPU      0.09s WALL (    5214 calls)
 
     Parallel routines
 
     PWSCF        :      0.68s CPU      0.79s WALL

 
   This run was terminated on:  17:42:35  13Mar2026            

=------------------------------------------------------------------------------=
   JOB DONE.
=------------------------------------------------------------------------------=
