
     Program PWSCF v.7.1 starts on 13Mar2026 at 17:42:30 

     This program is part of the open-source Quantum ESPRESSO suite
     for quantum simulation of materials; please cite
         "P. Giannozzi et al., J. Phys.:Condens. Matter 21 395502 (2009);
         "P. Giannozzi et al., J. Phys.:Condens. Matter 29 465901 (2017);
         "P. Giannozzi et al., J. Chem. Phys. 152 154105 (2020);
          URL http://www.quantum-espresso.org", 
     in publications or presentations arising from this work. More details at
     http://www.quantum-espresso.org/quote

     Parallel version (MPI), running on     8 processors

     MPI processes distributed on     1 nodes
     11513 MiB available memory on the printing compute node when the environment starts
 
     Reading input from scf.in

     Current dimensions of program PWSCF are:
     Max number of different atomic species (ntypx) = 10
     Max number of k-points (npk) =  40000
     Max angular momentum in pseudopotentials (lmaxx) =  4
     file Si.pbe-n-kjpaw_psl.1.0.0.UPF: wavefunction(s)  3S 3P renormalized
 
     R & G space division:  proc/nbgrp/npool/nimage =       8
     Subspace diagonalization in iterative solution of the eigenvalue problem:
     a serial algorithm will be used

 
     Parallelization info
     --------------------
     sticks:   dense  smooth     PW     G-vecs:    dense   smooth      PW
     Min          57      57     18                  826      826     153
     Max          58      58     19                  828      828     156
     Sum         463     463    151                 6615     6615    1243
 
     Using Slab Decomposition
 


     bravais-lattice index     =            2
     lattice parameter (alat)  =      10.6119  a.u.
     unit-cell volume          =     298.7585 (a.u.)^3
     number of atoms/cell      =            2
     number of atomic types    =            1
     number of electrons       =         8.00
     number of Kohn-Sham states=            4
     kinetic-energy cutoff     =      30.0000  Ry
     charge density cutoff     =     120.0000  Ry
     scf convergence threshold =      1.0E-06
     mixing beta               =       0.6000
     number of iterations used =            8  plain     mixing
     Exchange-correlation= SLA  PW   PBX  PBC
                           (   1   4   3   4   0   0   0)

     celldm(1)=  10.611907  celldm(2)=   0.000000  celldm(3)=   0.000000
     celldm(4)=   0.000000  celldm(5)=   0.000000  celldm(6)=   0.000000

     crystal axes: (cart. coord. in units of alat)
               a(1) = (  -0.500000   0.000000   0.500000 )  
               a(2) = (   0.000000   0.500000   0.500000 )  
               a(3) = (  -0.500000   0.500000   0.000000 )  

     reciprocal axes: (cart. coord. in units 2 pi/alat)
               b(1) = ( -1.000000 -1.000000  1.000000 )  
               b(2) = (  1.000000  1.000000  1.000000 )  
               b(3) = ( -1.000000  1.000000 -1.000000 )  


     PseudoPot. # 1 for Si read from file:
     /home/karan/pseudos/Si.pbe-n-kjpaw_psl.1.0.0.UPF
     MD5 check sum: c39c59da582df4a0d9f10159256ea34e
     Pseudo is Projector augmented-wave + core cor, Zval =  4.0
     Generated using &quot;atomic&quot; code by A. Dal Corso  v.6.3
     Shape of augmentation charge: PSQ
     Using radial grid of 1141 points,  6 beta functions with: 
                l(1) =   0
                l(2) =   0
                l(3) =   1
                l(4) =   1
                l(5) =   2
                l(6) =   2
     Q(r) pseudized with 0 coefficients 


     atomic species   valence    mass     pseudopotential
        Si             4.00    28.08600     Si( 1.00)

     48 Sym. Ops., with inversion, found (24 have fractional translation)



   Cartesian axes

     site n.     atom                  positions (alat units)
         1           Si  tau(   1) = (   0.0000000   0.0000000   0.0000000  )
         2           Si  tau(   2) = (   0.2500000   0.2500000   0.2500000  )

     number of k points=    28
                       cart. coord. in units 2pi/alat
        k(    1) = (  -0.0833333   0.0833333   0.0833333), wk =   0.0185185
        k(    2) = (  -0.2500000   0.2500000  -0.0833333), wk =   0.0555556
        k(    3) = (  -0.4166667   0.4166667  -0.2500000), wk =   0.0555556
        k(    4) = (   0.4166667  -0.4166667   0.5833333), wk =   0.0555556
        k(    5) = (   0.2500000  -0.2500000   0.4166667), wk =   0.0555556
        k(    6) = (   0.0833333  -0.0833333   0.2500000), wk =   0.0555556
        k(    7) = (  -0.0833333   0.4166667   0.0833333), wk =   0.0555556
        k(    8) = (  -0.2500000   0.5833333  -0.0833333), wk =   0.1111111
        k(    9) = (   0.5833333  -0.2500000   0.7500000), wk =   0.1111111
        k(   10) = (   0.4166667  -0.0833333   0.5833333), wk =   0.1111111
        k(   11) = (   0.2500000   0.0833333   0.4166667), wk =   0.1111111
        k(   12) = (  -0.0833333   0.7500000   0.0833333), wk =   0.0555556
        k(   13) = (   0.7500000  -0.0833333   0.9166667), wk =   0.1111111
        k(   14) = (   0.5833333   0.0833333   0.7500000), wk =   0.1111111
        k(   15) = (   0.4166667   0.2500000   0.5833333), wk =   0.1111111
        k(   16) = (  -0.0833333  -0.9166667   0.0833333), wk =   0.0555556
        k(   17) = (  -0.2500000  -0.7500000  -0.0833333), wk =   0.1111111
        k(   18) = (  -0.0833333  -0.5833333   0.0833333), wk =   0.0555556
        k(   19) = (  -0.2500000   0.2500000   0.2500000), wk =   0.0185185
        k(   20) = (  -0.4166667   0.4166667   0.0833333), wk =   0.0555556
        k(   21) = (   0.4166667  -0.4166667   0.9166667), wk =   0.0555556
        k(   22) = (   0.2500000  -0.2500000   0.7500000), wk =   0.0555556
        k(   23) = (  -0.2500000   0.5833333   0.2500000), wk =   0.0555556
        k(   24) = (   0.5833333  -0.2500000   1.0833333), wk =   0.1111111
        k(   25) = (   0.4166667  -0.0833333   0.9166667), wk =   0.1111111
        k(   26) = (  -0.2500000  -1.0833333   0.2500000), wk =   0.0555556
        k(   27) = (  -0.4166667   0.4166667   0.4166667), wk =   0.0185185
        k(   28) = (   0.4166667  -0.4166667   1.2500000), wk =   0.0555556

     Dense  grid:     6615 G-vectors     FFT dimensions: (  32,  32,  32)

     Estimated max dynamical RAM per process >       4.12 MB

     Estimated total dynamical RAM >      32.93 MB

     Check: negative core charge=   -0.000004

     Initial potential from superposition of free atoms

     starting charge       7.9989, renormalised to       8.0000
     Starting wfcs are    8 randomized atomic wfcs
     Checking if some PAW data can be deallocated... 

     total cpu time spent up to now is        0.2 secs

     Self-consistent Calculation

     iteration #  1     ecut=    30.00 Ry     beta= 0.60
     Davidson diagonalization with overlap
     ethr =  1.00E-02,  avg # of iterations =  2.0

     Threshold (ethr) on eigenvalues was too large:
     Diagonalizing with lowered threshold

     Davidson diagonalization with overlap
     ethr =  5.25E-04,  avg # of iterations =  1.8

     total cpu time spent up to now is        0.3 secs

     total energy              =     -93.44734719 Ry
     estimated scf accuracy    <       0.04556966 Ry

     iteration #  2     ecut=    30.00 Ry     beta= 0.60
     Davidson diagonalization with overlap
     ethr =  5.70E-04,  avg # of iterations =  1.0

     total cpu time spent up to now is        0.4 secs

     total energy              =     -93.44776558 Ry
     estimated scf accuracy    <       0.00565129 Ry

     iteration #  3     ecut=    30.00 Ry     beta= 0.60
     Davidson diagonalization with overlap
     ethr =  7.06E-05,  avg # of iterations =  2.0

     total cpu time spent up to now is        0.5 secs

     total energy              =     -93.44843220 Ry
     estimated scf accuracy    <       0.00010410 Ry

     iteration #  4     ecut=    30.00 Ry     beta= 0.60
     Davidson diagonalization with overlap
     ethr =  1.30E-06,  avg # of iterations =  4.9

     total cpu time spent up to now is        0.6 secs

     total energy              =     -93.44854795 Ry
     estimated scf accuracy    <       0.00000638 Ry

     iteration #  5     ecut=    30.00 Ry     beta= 0.60
     Davidson diagonalization with overlap
     ethr =  7.98E-08,  avg # of iterations =  4.3

     total cpu time spent up to now is        0.7 secs

     End of self-consistent calculation

          k =-0.0833 0.0833 0.0833 (   860 PWs)   bands (ev):

    -6.0179   4.3234   5.0708   5.0708

          k =-0.2500 0.2500-0.0833 (   832 PWs)   bands (ev):

    -5.5807   2.3193   3.9434   4.8657

          k =-0.4167 0.4167-0.2500 (   829 PWs)   bands (ev):

    -4.5892  -0.2228   3.4853   4.2786

          k = 0.4167-0.4167 0.5833 (   828 PWs)   bands (ev):

    -3.9753  -1.2506   3.5295   3.9342

          k = 0.2500-0.2500 0.4167 (   836 PWs)   bands (ev):

    -4.9603   0.5522   3.9890   4.0012

          k = 0.0833-0.0833 0.2500 (   844 PWs)   bands (ev):

    -5.7969   3.2622   4.4899   4.6253

          k =-0.0833 0.4167 0.0833 (   838 PWs)   bands (ev):

    -5.3589   2.0721   3.7840   3.8222

          k =-0.2500 0.5833-0.0833 (   831 PWs)   bands (ev):

    -4.5274   0.3519   2.5969   3.4608

          k = 0.5833-0.2500 0.7500 (   828 PWs)   bands (ev):

    -3.5337  -1.2091   2.0181   3.2616

          k = 0.4167-0.0833 0.5833 (   826 PWs)   bands (ev):

    -4.1732  -0.2706   2.0123   3.6949

          k = 0.2500 0.0833 0.4167 (   837 PWs)   bands (ev):

    -5.1536   1.3315   3.2304   4.2886

          k =-0.0833 0.7500 0.0833 (   825 PWs)   bands (ev):

    -3.8719  -0.4629   2.5764   2.8726

          k = 0.7500-0.0833 0.9167 (   822 PWs)   bands (ev):

    -2.7874  -1.7028   1.8323   2.5172

          k = 0.5833 0.0833 0.7500 (   825 PWs)   bands (ev):

    -3.1475  -1.3538   1.3871   3.0112

          k = 0.4167 0.2500 0.5833 (   826 PWs)   bands (ev):

    -4.0813  -0.8277   2.8205   3.7791

          k =-0.0833-0.9167 0.0833 (   816 PWs)   bands (ev):

    -2.8607  -1.7057   2.3317   2.6732

          k =-0.2500-0.7500-0.0833 (   824 PWs)   bands (ev):

    -3.7239  -0.6603   2.1079   2.8290

          k =-0.0833-0.5833 0.0833 (   830 PWs)   bands (ev):

    -4.7124   0.8163   3.0656   3.2632

          k =-0.2500 0.2500 0.2500 (   827 PWs)   bands (ev):

    -5.3713   1.4336   4.5033   4.5033

          k =-0.4167 0.4167 0.0833 (   830 PWs)   bands (ev):

    -4.7516   0.5040   2.5614   4.3404

          k = 0.4167-0.4167 0.9167 (   833 PWs)   bands (ev):

    -3.6879  -0.8613   1.5675   3.6294

          k = 0.2500-0.2500 0.7500 (   822 PWs)   bands (ev):

    -3.6355  -0.9368   1.9872   3.1935

          k =-0.2500 0.5833 0.2500 (   824 PWs)   bands (ev):

    -4.3673  -0.2266   2.9406   3.5355

          k = 0.5833-0.2500 1.0833 (   826 PWs)   bands (ev):

    -3.4586  -1.0008   1.6641   2.8362

          k = 0.4167-0.0833 0.9167 (   828 PWs)   bands (ev):

    -2.7042  -1.7102   1.5398   2.2397

          k =-0.2500-1.0833 0.2500 (   820 PWs)   bands (ev):

    -2.8997  -1.5995   1.4244   3.0148

          k =-0.4167 0.4167 0.4167 (   829 PWs)   bands (ev):

    -4.2997  -0.8857   4.1362   4.1362

          k = 0.4167-0.4167 1.2500 (   833 PWs)   bands (ev):

    -3.7574  -1.1956   2.4368   3.7427

     highest occupied level (ev):     5.0708

!    total energy              =     -93.44855241 Ry
     total all-electron energy =     -1160.140282 Ry
     estimated scf accuracy    <       0.00000024 Ry

     The total energy is the sum of the following terms:
     one-electron contribution =       4.96672207 Ry
     hartree contribution      =       1.19096803 Ry
     xc contribution           =     -12.19044091 Ry
     ewald contribution        =     -16.24378521 Ry
     one-center paw contrib.   =     -71.17201639 Ry

     convergence has been achieved in   5 iterations

     Writing all to output data dir ./silicon.save/
 
     init_run     :      0.07s CPU      0.09s WALL (       1 calls)
     electrons    :      0.50s CPU      0.55s WALL (       1 calls)

     Called by init_run:
     wfcinit      :      0.01s CPU      0.01s WALL (       1 calls)
     potinit      :      0.04s CPU      0.06s WALL (       1 calls)
     hinit0       :      0.01s CPU      0.02s WALL (       1 calls)

     Called by electrons:
     c_bands      :      0.19s CPU      0.20s WALL (       6 calls)
     sum_band     :      0.05s CPU      0.05s WALL (       6 calls)
     v_of_rho     :      0.01s CPU      0.01s WALL (       6 calls)
     newd         :      0.01s CPU      0.02s WALL (       6 calls)
     PAW_pot      :      0.28s CPU      0.33s WALL (       6 calls)
     mix_rho      :      0.00s CPU      0.00s WALL (       6 calls)

     Called by c_bands:
     init_us_2    :      0.01s CPU      0.01s WALL (     364 calls)
     init_us_2:cp :      0.01s CPU      0.01s WALL (     364 calls)
     cegterg      :      0.11s CPU      0.12s WALL (     168 calls)

     Called by *egterg:
     cdiaghg      :      0.01s CPU      0.01s WALL (     587 calls)
     h_psi        :      0.09s CPU      0.09s WALL (     643 calls)
     s_psi        :      0.00s CPU      0.00s WALL (     643 calls)
     g_psi        :      0.00s CPU      0.00s WALL (     447 calls)

     Called by h_psi:
     h_psi:calbec :      0.01s CPU      0.01s WALL (     643 calls)
     vloc_psi     :      0.07s CPU      0.08s WALL (     643 calls)
     add_vuspsi   :      0.00s CPU      0.00s WALL (     643 calls)

     General routines
     calbec       :      0.01s CPU      0.01s WALL (     811 calls)
     fft          :      0.00s CPU      0.00s WALL (      67 calls)
     ffts         :      0.00s CPU      0.00s WALL (       6 calls)
     fftw         :      0.07s CPU      0.08s WALL (    5108 calls)
 
     Parallel routines
 
     PWSCF        :      0.63s CPU      0.73s WALL

 
   This run was terminated on:  17:42:31  13Mar2026            

=------------------------------------------------------------------------------=
   JOB DONE.
=------------------------------------------------------------------------------=
