
     Program PWSCF v.7.1 starts on 13Mar2026 at 17:42:35 

     This program is part of the open-source Quantum ESPRESSO suite
     for quantum simulation of materials; please cite
         "P. Giannozzi et al., J. Phys.:Condens. Matter 21 395502 (2009);
         "P. Giannozzi et al., J. Phys.:Condens. Matter 29 465901 (2017);
         "P. Giannozzi et al., J. Chem. Phys. 152 154105 (2020);
          URL http://www.quantum-espresso.org", 
     in publications or presentations arising from this work. More details at
     http://www.quantum-espresso.org/quote

     Parallel version (MPI), running on     8 processors

     MPI processes distributed on     1 nodes
     11515 MiB available memory on the printing compute node when the environment starts
 
     Reading input from scf.in

     Current dimensions of program PWSCF are:
     Max number of different atomic species (ntypx) = 10
     Max number of k-points (npk) =  40000
     Max angular momentum in pseudopotentials (lmaxx) =  4
     file Si.pbe-n-kjpaw_psl.1.0.0.UPF: wavefunction(s)  3S 3P renormalized
 
     R & G space division:  proc/nbgrp/npool/nimage =       8
     Subspace diagonalization in iterative solution of the eigenvalue problem:
     a serial algorithm will be used

 
     Parallelization info
     --------------------
     sticks:   dense  smooth     PW     G-vecs:    dense   smooth      PW
     Min          61      61     20                  871      871     170
     Max          63      63     21                  872      872     172
     Sum         499     499    163                 6975     6975    1363
 
     Using Slab Decomposition
 


     bravais-lattice index     =            2
     lattice parameter (alat)  =      10.8190  a.u.
     unit-cell volume          =     316.5903 (a.u.)^3
     number of atoms/cell      =            2
     number of atomic types    =            1
     number of electrons       =         8.00
     number of Kohn-Sham states=            4
     kinetic-energy cutoff     =      30.0000  Ry
     charge density cutoff     =     120.0000  Ry
     scf convergence threshold =      1.0E-06
     mixing beta               =       0.6000
     number of iterations used =            8  plain     mixing
     Exchange-correlation= SLA  PW   PBX  PBC
                           (   1   4   3   4   0   0   0)

     celldm(1)=  10.818969  celldm(2)=   0.000000  celldm(3)=   0.000000
     celldm(4)=   0.000000  celldm(5)=   0.000000  celldm(6)=   0.000000

     crystal axes: (cart. coord. in units of alat)
               a(1) = (  -0.500000   0.000000   0.500000 )  
               a(2) = (   0.000000   0.500000   0.500000 )  
               a(3) = (  -0.500000   0.500000   0.000000 )  

     reciprocal axes: (cart. coord. in units 2 pi/alat)
               b(1) = ( -1.000000 -1.000000  1.000000 )  
               b(2) = (  1.000000  1.000000  1.000000 )  
               b(3) = ( -1.000000  1.000000 -1.000000 )  


     PseudoPot. # 1 for Si read from file:
     /home/karan/pseudos/Si.pbe-n-kjpaw_psl.1.0.0.UPF
     MD5 check sum: c39c59da582df4a0d9f10159256ea34e
     Pseudo is Projector augmented-wave + core cor, Zval =  4.0
     Generated using &quot;atomic&quot; code by A. Dal Corso  v.6.3
     Shape of augmentation charge: PSQ
     Using radial grid of 1141 points,  6 beta functions with: 
                l(1) =   0
                l(2) =   0
                l(3) =   1
                l(4) =   1
                l(5) =   2
                l(6) =   2
     Q(r) pseudized with 0 coefficients 


     atomic species   valence    mass     pseudopotential
        Si             4.00    28.08600     Si( 1.00)

     48 Sym. Ops., with inversion, found (24 have fractional translation)



   Cartesian axes

     site n.     atom                  positions (alat units)
         1           Si  tau(   1) = (   0.0000000   0.0000000   0.0000000  )
         2           Si  tau(   2) = (   0.2500000   0.2500000   0.2500000  )

     number of k points=    28
                       cart. coord. in units 2pi/alat
        k(    1) = (  -0.0833333   0.0833333   0.0833333), wk =   0.0185185
        k(    2) = (  -0.2500000   0.2500000  -0.0833333), wk =   0.0555556
        k(    3) = (  -0.4166667   0.4166667  -0.2500000), wk =   0.0555556
        k(    4) = (   0.4166667  -0.4166667   0.5833333), wk =   0.0555556
        k(    5) = (   0.2500000  -0.2500000   0.4166667), wk =   0.0555556
        k(    6) = (   0.0833333  -0.0833333   0.2500000), wk =   0.0555556
        k(    7) = (  -0.0833333   0.4166667   0.0833333), wk =   0.0555556
        k(    8) = (  -0.2500000   0.5833333  -0.0833333), wk =   0.1111111
        k(    9) = (   0.5833333  -0.2500000   0.7500000), wk =   0.1111111
        k(   10) = (   0.4166667  -0.0833333   0.5833333), wk =   0.1111111
        k(   11) = (   0.2500000   0.0833333   0.4166667), wk =   0.1111111
        k(   12) = (  -0.0833333   0.7500000   0.0833333), wk =   0.0555556
        k(   13) = (   0.7500000  -0.0833333   0.9166667), wk =   0.1111111
        k(   14) = (   0.5833333   0.0833333   0.7500000), wk =   0.1111111
        k(   15) = (   0.4166667   0.2500000   0.5833333), wk =   0.1111111
        k(   16) = (  -0.0833333  -0.9166667   0.0833333), wk =   0.0555556
        k(   17) = (  -0.2500000  -0.7500000  -0.0833333), wk =   0.1111111
        k(   18) = (  -0.0833333  -0.5833333   0.0833333), wk =   0.0555556
        k(   19) = (  -0.2500000   0.2500000   0.2500000), wk =   0.0185185
        k(   20) = (  -0.4166667   0.4166667   0.0833333), wk =   0.0555556
        k(   21) = (   0.4166667  -0.4166667   0.9166667), wk =   0.0555556
        k(   22) = (   0.2500000  -0.2500000   0.7500000), wk =   0.0555556
        k(   23) = (  -0.2500000   0.5833333   0.2500000), wk =   0.0555556
        k(   24) = (   0.5833333  -0.2500000   1.0833333), wk =   0.1111111
        k(   25) = (   0.4166667  -0.0833333   0.9166667), wk =   0.1111111
        k(   26) = (  -0.2500000  -1.0833333   0.2500000), wk =   0.0555556
        k(   27) = (  -0.4166667   0.4166667   0.4166667), wk =   0.0185185
        k(   28) = (   0.4166667  -0.4166667   1.2500000), wk =   0.0555556

     Dense  grid:     6975 G-vectors     FFT dimensions: (  32,  32,  32)

     Estimated max dynamical RAM per process >       4.28 MB

     Estimated total dynamical RAM >      34.23 MB

     Check: negative core charge=   -0.000004

     Initial potential from superposition of free atoms

     starting charge       7.9989, renormalised to       8.0000
     Starting wfcs are    8 randomized atomic wfcs
     Checking if some PAW data can be deallocated... 

     total cpu time spent up to now is        0.2 secs

     Self-consistent Calculation

     iteration #  1     ecut=    30.00 Ry     beta= 0.60
     Davidson diagonalization with overlap
     ethr =  1.00E-02,  avg # of iterations =  2.0

     Threshold (ethr) on eigenvalues was too large:
     Diagonalizing with lowered threshold

     Davidson diagonalization with overlap
     ethr =  4.75E-04,  avg # of iterations =  2.0

     total cpu time spent up to now is        0.4 secs

     total energy              =     -93.43849394 Ry
     estimated scf accuracy    <       0.04139839 Ry

     iteration #  2     ecut=    30.00 Ry     beta= 0.60
     Davidson diagonalization with overlap
     ethr =  5.17E-04,  avg # of iterations =  1.0

     total cpu time spent up to now is        0.4 secs

     total energy              =     -93.43877282 Ry
     estimated scf accuracy    <       0.00535094 Ry

     iteration #  3     ecut=    30.00 Ry     beta= 0.60
     Davidson diagonalization with overlap
     ethr =  6.69E-05,  avg # of iterations =  1.8

     total cpu time spent up to now is        0.6 secs

     total energy              =     -93.43927296 Ry
     estimated scf accuracy    <       0.00007620 Ry

     iteration #  4     ecut=    30.00 Ry     beta= 0.60
     Davidson diagonalization with overlap
     ethr =  9.53E-07,  avg # of iterations =  5.5

     total cpu time spent up to now is        0.7 secs

     total energy              =     -93.43939002 Ry
     estimated scf accuracy    <       0.00000128 Ry

     iteration #  5     ecut=    30.00 Ry     beta= 0.60
     Davidson diagonalization with overlap
     ethr =  1.60E-08,  avg # of iterations =  5.8

     total cpu time spent up to now is        0.8 secs

     End of self-consistent calculation

          k =-0.0833 0.0833 0.0833 (   893 PWs)   bands (ev):

    -6.2064   3.7510   4.5388   4.5388

          k =-0.2500 0.2500-0.0833 (   895 PWs)   bands (ev):

    -5.7918   1.7930   3.4749   4.3378

          k =-0.4167 0.4167-0.2500 (   878 PWs)   bands (ev):

    -4.8576  -0.6172   3.0206   3.7801

          k = 0.4167-0.4167 0.5833 (   875 PWs)   bands (ev):

    -4.2899  -1.5791   3.0525   3.4563

          k = 0.2500-0.2500 0.4167 (   878 PWs)   bands (ev):

    -5.2057   0.1155   3.4894   3.5267

          k = 0.0833-0.0833 0.2500 (   894 PWs)   bands (ev):

    -5.9966   2.6918   3.9955   4.1042

          k =-0.0833 0.4167 0.0833 (   876 PWs)   bands (ev):

    -5.5810   1.5127   3.3162   3.3640

          k =-0.2500 0.5833-0.0833 (   874 PWs)   bands (ev):

    -4.7947  -0.1336   2.2032   3.0176

          k = 0.5833-0.2500 0.7500 (   873 PWs)   bands (ev):

    -3.8689  -1.5884   1.6404   2.8335

          k = 0.4167-0.0833 0.5833 (   879 PWs)   bands (ev):

    -4.4632  -0.7160   1.6528   3.2372

          k = 0.2500 0.0833 0.4167 (   876 PWs)   bands (ev):

    -5.3873   0.8287   2.7998   3.7893

          k =-0.0833 0.7500 0.0833 (   875 PWs)   bands (ev):

    -4.1714  -0.9363   2.1888   2.4607

          k = 0.7500-0.0833 0.9167 (   880 PWs)   bands (ev):

    -3.1498  -2.1174   1.4997   2.1336

          k = 0.5833 0.0833 0.7500 (   879 PWs)   bands (ev):

    -3.5019  -1.7647   1.0782   2.5981

          k = 0.4167 0.2500 0.5833 (   878 PWs)   bands (ev):

    -4.3821  -1.2013   2.3846   3.3138

          k =-0.0833-0.9167 0.0833 (   880 PWs)   bands (ev):

    -3.2135  -2.1181   1.9582   2.2705

          k =-0.2500-0.7500-0.0833 (   877 PWs)   bands (ev):

    -4.0348  -1.1191   1.7507   2.4285

          k =-0.0833-0.5833 0.0833 (   871 PWs)   bands (ev):

    -4.9680   0.2901   2.6472   2.8327

          k =-0.2500 0.2500 0.2500 (   890 PWs)   bands (ev):

    -5.5938   0.9643   3.9989   3.9989

          k =-0.4167 0.4167 0.0833 (   882 PWs)   bands (ev):

    -5.0082   0.0378   2.1682   3.8403

          k = 0.4167-0.4167 0.9167 (   872 PWs)   bands (ev):

    -4.0093  -1.2812   1.2389   3.1723

          k = 0.2500-0.2500 0.7500 (   875 PWs)   bands (ev):

    -3.9571  -1.3547   1.6255   2.7628

          k =-0.2500 0.5833 0.2500 (   879 PWs)   bands (ev):

    -4.6464  -0.6483   2.5000   3.0868

          k = 0.5833-0.2500 1.0833 (   879 PWs)   bands (ev):

    -3.7902  -1.4333   1.3329   2.4406

          k = 0.4167-0.0833 0.9167 (   882 PWs)   bands (ev):

    -3.0787  -2.1246   1.2283   1.8843

          k =-0.2500-1.0833 0.2500 (   876 PWs)   bands (ev):

    -3.2654  -2.0064   1.1191   2.5933

          k =-0.4167 0.4167 0.4167 (   878 PWs)   bands (ev):

    -4.5900  -1.2329   3.6452   3.6452

          k = 0.4167-0.4167 1.2500 (   868 PWs)   bands (ev):

    -4.0822  -1.5502   2.0255   3.2779

     highest occupied level (ev):     4.5388

!    total energy              =     -93.43939290 Ry
     total all-electron energy =     -1160.131123 Ry
     estimated scf accuracy    <       0.00000003 Ry

     The total energy is the sum of the following terms:
     one-electron contribution =       4.54003055 Ry
     hartree contribution      =       1.24524130 Ry
     xc contribution           =     -12.12654886 Ry
     ewald contribution        =     -15.93289936 Ry
     one-center paw contrib.   =     -71.16521653 Ry

     convergence has been achieved in   5 iterations

     Writing all to output data dir ./silicon.save/
 
     init_run     :      0.10s CPU      0.12s WALL (       1 calls)
     electrons    :      0.56s CPU      0.60s WALL (       1 calls)

     Called by init_run:
     wfcinit      :      0.02s CPU      0.02s WALL (       1 calls)
     potinit      :      0.06s CPU      0.07s WALL (       1 calls)
     hinit0       :      0.02s CPU      0.02s WALL (       1 calls)

     Called by electrons:
     c_bands      :      0.22s CPU      0.23s WALL (       6 calls)
     sum_band     :      0.05s CPU      0.06s WALL (       6 calls)
     v_of_rho     :      0.01s CPU      0.01s WALL (       6 calls)
     newd         :      0.03s CPU      0.03s WALL (       6 calls)
     PAW_pot      :      0.31s CPU      0.35s WALL (       6 calls)
     mix_rho      :      0.00s CPU      0.00s WALL (       6 calls)

     Called by c_bands:
     init_us_2    :      0.01s CPU      0.01s WALL (     364 calls)
     init_us_2:cp :      0.01s CPU      0.01s WALL (     364 calls)
     cegterg      :      0.14s CPU      0.14s WALL (     168 calls)

     Called by *egterg:
     cdiaghg      :      0.01s CPU      0.01s WALL (     644 calls)
     h_psi        :      0.11s CPU      0.11s WALL (     700 calls)
     s_psi        :      0.00s CPU      0.00s WALL (     700 calls)
     g_psi        :      0.00s CPU      0.00s WALL (     504 calls)

     Called by h_psi:
     h_psi:calbec :      0.01s CPU      0.01s WALL (     700 calls)
     vloc_psi     :      0.09s CPU      0.10s WALL (     700 calls)
     add_vuspsi   :      0.00s CPU      0.00s WALL (     700 calls)

     General routines
     calbec       :      0.01s CPU      0.01s WALL (     868 calls)
     fft          :      0.00s CPU      0.00s WALL (      67 calls)
     ffts         :      0.00s CPU      0.00s WALL (       6 calls)
     fftw         :      0.09s CPU      0.10s WALL (    5408 calls)
 
     Parallel routines
 
     PWSCF        :      0.75s CPU      0.81s WALL

 
   This run was terminated on:  17:42:36  13Mar2026            

=------------------------------------------------------------------------------=
   JOB DONE.
=------------------------------------------------------------------------------=
