
     Program PWSCF v.7.1 starts on 13Mar2026 at 17:42:33 

     This program is part of the open-source Quantum ESPRESSO suite
     for quantum simulation of materials; please cite
         "P. Giannozzi et al., J. Phys.:Condens. Matter 21 395502 (2009);
         "P. Giannozzi et al., J. Phys.:Condens. Matter 29 465901 (2017);
         "P. Giannozzi et al., J. Chem. Phys. 152 154105 (2020);
          URL http://www.quantum-espresso.org", 
     in publications or presentations arising from this work. More details at
     http://www.quantum-espresso.org/quote

     Parallel version (MPI), running on     8 processors

     MPI processes distributed on     1 nodes
     11532 MiB available memory on the printing compute node when the environment starts
 
     Reading input from scf.in

     Current dimensions of program PWSCF are:
     Max number of different atomic species (ntypx) = 10
     Max number of k-points (npk) =  40000
     Max angular momentum in pseudopotentials (lmaxx) =  4
     file Si.pbe-n-kjpaw_psl.1.0.0.UPF: wavefunction(s)  3S 3P renormalized
 
     R & G space division:  proc/nbgrp/npool/nimage =       8
     Subspace diagonalization in iterative solution of the eigenvalue problem:
     a serial algorithm will be used

 
     Parallelization info
     --------------------
     sticks:   dense  smooth     PW     G-vecs:    dense   smooth      PW
     Min          59      59     18                  856      856     153
     Max          60      60     19                  859      859     156
     Sum         475     475    151                 6855     6855    1243
 
     Using Slab Decomposition
 


     bravais-lattice index     =            2
     lattice parameter (alat)  =      10.7154  a.u.
     unit-cell volume          =     307.5883 (a.u.)^3
     number of atoms/cell      =            2
     number of atomic types    =            1
     number of electrons       =         8.00
     number of Kohn-Sham states=            4
     kinetic-energy cutoff     =      30.0000  Ry
     charge density cutoff     =     120.0000  Ry
     scf convergence threshold =      1.0E-06
     mixing beta               =       0.6000
     number of iterations used =            8  plain     mixing
     Exchange-correlation= SLA  PW   PBX  PBC
                           (   1   4   3   4   0   0   0)

     celldm(1)=  10.715438  celldm(2)=   0.000000  celldm(3)=   0.000000
     celldm(4)=   0.000000  celldm(5)=   0.000000  celldm(6)=   0.000000

     crystal axes: (cart. coord. in units of alat)
               a(1) = (  -0.500000   0.000000   0.500000 )  
               a(2) = (   0.000000   0.500000   0.500000 )  
               a(3) = (  -0.500000   0.500000   0.000000 )  

     reciprocal axes: (cart. coord. in units 2 pi/alat)
               b(1) = ( -1.000000 -1.000000  1.000000 )  
               b(2) = (  1.000000  1.000000  1.000000 )  
               b(3) = ( -1.000000  1.000000 -1.000000 )  


     PseudoPot. # 1 for Si read from file:
     /home/karan/pseudos/Si.pbe-n-kjpaw_psl.1.0.0.UPF
     MD5 check sum: c39c59da582df4a0d9f10159256ea34e
     Pseudo is Projector augmented-wave + core cor, Zval =  4.0
     Generated using &quot;atomic&quot; code by A. Dal Corso  v.6.3
     Shape of augmentation charge: PSQ
     Using radial grid of 1141 points,  6 beta functions with: 
                l(1) =   0
                l(2) =   0
                l(3) =   1
                l(4) =   1
                l(5) =   2
                l(6) =   2
     Q(r) pseudized with 0 coefficients 


     atomic species   valence    mass     pseudopotential
        Si             4.00    28.08600     Si( 1.00)

     48 Sym. Ops., with inversion, found (24 have fractional translation)



   Cartesian axes

     site n.     atom                  positions (alat units)
         1           Si  tau(   1) = (   0.0000000   0.0000000   0.0000000  )
         2           Si  tau(   2) = (   0.2500000   0.2500000   0.2500000  )

     number of k points=    28
                       cart. coord. in units 2pi/alat
        k(    1) = (  -0.0833333   0.0833333   0.0833333), wk =   0.0185185
        k(    2) = (  -0.2500000   0.2500000  -0.0833333), wk =   0.0555556
        k(    3) = (  -0.4166667   0.4166667  -0.2500000), wk =   0.0555556
        k(    4) = (   0.4166667  -0.4166667   0.5833333), wk =   0.0555556
        k(    5) = (   0.2500000  -0.2500000   0.4166667), wk =   0.0555556
        k(    6) = (   0.0833333  -0.0833333   0.2500000), wk =   0.0555556
        k(    7) = (  -0.0833333   0.4166667   0.0833333), wk =   0.0555556
        k(    8) = (  -0.2500000   0.5833333  -0.0833333), wk =   0.1111111
        k(    9) = (   0.5833333  -0.2500000   0.7500000), wk =   0.1111111
        k(   10) = (   0.4166667  -0.0833333   0.5833333), wk =   0.1111111
        k(   11) = (   0.2500000   0.0833333   0.4166667), wk =   0.1111111
        k(   12) = (  -0.0833333   0.7500000   0.0833333), wk =   0.0555556
        k(   13) = (   0.7500000  -0.0833333   0.9166667), wk =   0.1111111
        k(   14) = (   0.5833333   0.0833333   0.7500000), wk =   0.1111111
        k(   15) = (   0.4166667   0.2500000   0.5833333), wk =   0.1111111
        k(   16) = (  -0.0833333  -0.9166667   0.0833333), wk =   0.0555556
        k(   17) = (  -0.2500000  -0.7500000  -0.0833333), wk =   0.1111111
        k(   18) = (  -0.0833333  -0.5833333   0.0833333), wk =   0.0555556
        k(   19) = (  -0.2500000   0.2500000   0.2500000), wk =   0.0185185
        k(   20) = (  -0.4166667   0.4166667   0.0833333), wk =   0.0555556
        k(   21) = (   0.4166667  -0.4166667   0.9166667), wk =   0.0555556
        k(   22) = (   0.2500000  -0.2500000   0.7500000), wk =   0.0555556
        k(   23) = (  -0.2500000   0.5833333   0.2500000), wk =   0.0555556
        k(   24) = (   0.5833333  -0.2500000   1.0833333), wk =   0.1111111
        k(   25) = (   0.4166667  -0.0833333   0.9166667), wk =   0.1111111
        k(   26) = (  -0.2500000  -1.0833333   0.2500000), wk =   0.0555556
        k(   27) = (  -0.4166667   0.4166667   0.4166667), wk =   0.0185185
        k(   28) = (   0.4166667  -0.4166667   1.2500000), wk =   0.0555556

     Dense  grid:     6855 G-vectors     FFT dimensions: (  32,  32,  32)

     Estimated max dynamical RAM per process >       4.23 MB

     Estimated total dynamical RAM >      33.83 MB

     Check: negative core charge=   -0.000003

     Initial potential from superposition of free atoms

     starting charge       7.9989, renormalised to       8.0000
     Starting wfcs are    8 randomized atomic wfcs
     Checking if some PAW data can be deallocated... 

     total cpu time spent up to now is        0.2 secs

     Self-consistent Calculation

     iteration #  1     ecut=    30.00 Ry     beta= 0.60
     Davidson diagonalization with overlap
     ethr =  1.00E-02,  avg # of iterations =  2.0

     Threshold (ethr) on eigenvalues was too large:
     Diagonalizing with lowered threshold

     Davidson diagonalization with overlap
     ethr =  4.99E-04,  avg # of iterations =  1.8

     total cpu time spent up to now is        0.3 secs

     total energy              =     -93.44343355 Ry
     estimated scf accuracy    <       0.04342690 Ry

     iteration #  2     ecut=    30.00 Ry     beta= 0.60
     Davidson diagonalization with overlap
     ethr =  5.43E-04,  avg # of iterations =  1.0

     total cpu time spent up to now is        0.4 secs

     total energy              =     -93.44378639 Ry
     estimated scf accuracy    <       0.00548970 Ry

     iteration #  3     ecut=    30.00 Ry     beta= 0.60
     Davidson diagonalization with overlap
     ethr =  6.86E-05,  avg # of iterations =  1.9

     total cpu time spent up to now is        0.5 secs

     total energy              =     -93.44435741 Ry
     estimated scf accuracy    <       0.00008933 Ry

     iteration #  4     ecut=    30.00 Ry     beta= 0.60
     Davidson diagonalization with overlap
     ethr =  1.12E-06,  avg # of iterations =  5.1

     total cpu time spent up to now is        0.6 secs

     total energy              =     -93.44446764 Ry
     estimated scf accuracy    <       0.00000292 Ry

     iteration #  5     ecut=    30.00 Ry     beta= 0.60
     Davidson diagonalization with overlap
     ethr =  3.65E-08,  avg # of iterations =  4.7

     total cpu time spent up to now is        0.7 secs

     End of self-consistent calculation

          k =-0.0833 0.0833 0.0833 (   875 PWs)   bands (ev):

    -6.1136   4.0351   4.8002   4.8002

          k =-0.2500 0.2500-0.0833 (   859 PWs)   bands (ev):

    -5.6879   2.0538   3.7049   4.5970

          k =-0.4167 0.4167-0.2500 (   857 PWs)   bands (ev):

    -4.7255  -0.4220   3.2487   4.0248

          k = 0.4167-0.4167 0.5833 (   855 PWs)   bands (ev):

    -4.1352  -1.4163   3.2866   3.6909

          k = 0.2500-0.2500 0.4167 (   854 PWs)   bands (ev):

    -5.0849   0.3317   3.7346   3.7597

          k = 0.0833-0.0833 0.2500 (   875 PWs)   bands (ev):

    -5.8983   2.9748   4.2384   4.3599

          k =-0.0833 0.4167 0.0833 (   857 PWs)   bands (ev):

    -5.4716   1.7895   3.5456   3.5891

          k =-0.2500 0.5833-0.0833 (   854 PWs)   bands (ev):

    -4.6631   0.1063   2.3963   3.2352

          k = 0.5833-0.2500 0.7500 (   849 PWs)   bands (ev):

    -3.7040  -1.4006   1.8254   3.0438

          k = 0.4167-0.0833 0.5833 (   856 PWs)   bands (ev):

    -4.3204  -0.4959   1.8291   3.4620

          k = 0.2500 0.0833 0.4167 (   859 PWs)   bands (ev):

    -5.2722   1.0775   3.0111   4.0344

          k =-0.0833 0.7500 0.0833 (   850 PWs)   bands (ev):

    -4.0239  -0.7030   2.3792   2.6629

          k = 0.7500-0.0833 0.9167 (   853 PWs)   bands (ev):

    -2.9713  -1.9132   1.6631   2.3220

          k = 0.5833 0.0833 0.7500 (   852 PWs)   bands (ev):

    -3.3276  -1.5619   1.2298   2.8010

          k = 0.4167 0.2500 0.5833 (   852 PWs)   bands (ev):

    -4.2340  -1.0163   2.5983   3.5423

          k =-0.0833-0.9167 0.0833 (   844 PWs)   bands (ev):

    -3.0397  -1.9149   2.1416   2.4681

          k =-0.2500-0.7500-0.0833 (   853 PWs)   bands (ev):

    -3.8817  -0.8929   1.9261   2.6253

          k =-0.0833-0.5833 0.0833 (   850 PWs)   bands (ev):

    -4.8421   0.5498   2.8526   3.0441

          k =-0.2500 0.2500 0.2500 (   860 PWs)   bands (ev):

    -5.4843   1.1967   4.2466   4.2466

          k =-0.4167 0.4167 0.0833 (   851 PWs)   bands (ev):

    -4.8819   0.2684   2.3610   4.0859

          k = 0.4167-0.4167 0.9167 (   853 PWs)   bands (ev):

    -3.8511  -1.0737   1.4000   3.3967

          k = 0.2500-0.2500 0.7500 (   855 PWs)   bands (ev):

    -3.7988  -1.1482   1.8028   2.9742

          k =-0.2500 0.5833 0.2500 (   850 PWs)   bands (ev):

    -4.5090  -0.4396   2.7159   3.3071

          k = 0.5833-0.2500 1.0833 (   853 PWs)   bands (ev):

    -3.6270  -1.2200   1.4953   2.6350

          k = 0.4167-0.0833 0.9167 (   858 PWs)   bands (ev):

    -2.8944  -1.9205   1.3813   2.0590

          k =-0.2500-1.0833 0.2500 (   850 PWs)   bands (ev):

    -3.0854  -1.8058   1.2691   2.8002

          k =-0.4167 0.4167 0.4167 (   853 PWs)   bands (ev):

    -4.4472  -1.0610   3.8862   3.8862

          k = 0.4167-0.4167 1.2500 (   847 PWs)   bands (ev):

    -3.9225  -1.3744   2.2271   3.5061

     highest occupied level (ev):     4.8002

!    total energy              =     -93.44447137 Ry
     total all-electron energy =     -1160.136201 Ry
     estimated scf accuracy    <       0.00000017 Ry

     The total energy is the sum of the following terms:
     one-electron contribution =       4.75072933 Ry
     hartree contribution      =       1.21798459 Ry
     xc contribution           =     -12.15790572 Ry
     ewald contribution        =     -16.08684041 Ry
     one-center paw contrib.   =     -71.16843917 Ry

     convergence has been achieved in   5 iterations

     Writing all to output data dir ./silicon.save/
 
     init_run     :      0.07s CPU      0.09s WALL (       1 calls)
     electrons    :      0.51s CPU      0.57s WALL (       1 calls)

     Called by init_run:
     wfcinit      :      0.01s CPU      0.01s WALL (       1 calls)
     potinit      :      0.05s CPU      0.05s WALL (       1 calls)
     hinit0       :      0.01s CPU      0.02s WALL (       1 calls)

     Called by electrons:
     c_bands      :      0.21s CPU      0.21s WALL (       6 calls)
     sum_band     :      0.04s CPU      0.05s WALL (       6 calls)
     v_of_rho     :      0.01s CPU      0.01s WALL (       6 calls)
     newd         :      0.01s CPU      0.02s WALL (       6 calls)
     PAW_pot      :      0.29s CPU      0.33s WALL (       6 calls)
     mix_rho      :      0.00s CPU      0.00s WALL (       6 calls)

     Called by c_bands:
     init_us_2    :      0.01s CPU      0.01s WALL (     364 calls)
     init_us_2:cp :      0.01s CPU      0.01s WALL (     364 calls)
     cegterg      :      0.12s CPU      0.12s WALL (     168 calls)

     Called by *egterg:
     cdiaghg      :      0.01s CPU      0.01s WALL (     605 calls)
     h_psi        :      0.10s CPU      0.10s WALL (     661 calls)
     s_psi        :      0.00s CPU      0.00s WALL (     661 calls)
     g_psi        :      0.00s CPU      0.00s WALL (     465 calls)

     Called by h_psi:
     h_psi:calbec :      0.01s CPU      0.01s WALL (     661 calls)
     vloc_psi     :      0.08s CPU      0.08s WALL (     661 calls)
     add_vuspsi   :      0.00s CPU      0.00s WALL (     661 calls)

     General routines
     calbec       :      0.01s CPU      0.01s WALL (     829 calls)
     fft          :      0.00s CPU      0.00s WALL (      67 calls)
     ffts         :      0.00s CPU      0.00s WALL (       6 calls)
     fftw         :      0.08s CPU      0.08s WALL (    5208 calls)
 
     Parallel routines
 
     PWSCF        :      0.67s CPU      0.75s WALL

 
   This run was terminated on:  17:42:33  13Mar2026            

=------------------------------------------------------------------------------=
   JOB DONE.
=------------------------------------------------------------------------------=
