
     Program PWSCF v.7.1 starts on 13Mar2026 at 17:42:29 

     This program is part of the open-source Quantum ESPRESSO suite
     for quantum simulation of materials; please cite
         "P. Giannozzi et al., J. Phys.:Condens. Matter 21 395502 (2009);
         "P. Giannozzi et al., J. Phys.:Condens. Matter 29 465901 (2017);
         "P. Giannozzi et al., J. Chem. Phys. 152 154105 (2020);
          URL http://www.quantum-espresso.org", 
     in publications or presentations arising from this work. More details at
     http://www.quantum-espresso.org/quote

     Parallel version (MPI), running on     8 processors

     MPI processes distributed on     1 nodes
     11518 MiB available memory on the printing compute node when the environment starts
 
     Reading input from scf.in

     Current dimensions of program PWSCF are:
     Max number of different atomic species (ntypx) = 10
     Max number of k-points (npk) =  40000
     Max angular momentum in pseudopotentials (lmaxx) =  4
     file Si.pbe-n-kjpaw_psl.1.0.0.UPF: wavefunction(s)  3S 3P renormalized
 
     R & G space division:  proc/nbgrp/npool/nimage =       8
     Subspace diagonalization in iterative solution of the eigenvalue problem:
     a serial algorithm will be used

 
     Parallelization info
     --------------------
     sticks:   dense  smooth     PW     G-vecs:    dense   smooth      PW
     Min          56      56     18                  802      802     153
     Max          57      57     19                  805      805     156
     Sum         451     451    151                 6423     6423    1243
 
     Using Slab Decomposition
 


     bravais-lattice index     =            2
     lattice parameter (alat)  =      10.5601  a.u.
     unit-cell volume          =     294.4077 (a.u.)^3
     number of atoms/cell      =            2
     number of atomic types    =            1
     number of electrons       =         8.00
     number of Kohn-Sham states=            4
     kinetic-energy cutoff     =      30.0000  Ry
     charge density cutoff     =     120.0000  Ry
     scf convergence threshold =      1.0E-06
     mixing beta               =       0.6000
     number of iterations used =            8  plain     mixing
     Exchange-correlation= SLA  PW   PBX  PBC
                           (   1   4   3   4   0   0   0)

     celldm(1)=  10.560142  celldm(2)=   0.000000  celldm(3)=   0.000000
     celldm(4)=   0.000000  celldm(5)=   0.000000  celldm(6)=   0.000000

     crystal axes: (cart. coord. in units of alat)
               a(1) = (  -0.500000   0.000000   0.500000 )  
               a(2) = (   0.000000   0.500000   0.500000 )  
               a(3) = (  -0.500000   0.500000   0.000000 )  

     reciprocal axes: (cart. coord. in units 2 pi/alat)
               b(1) = ( -1.000000 -1.000000  1.000000 )  
               b(2) = (  1.000000  1.000000  1.000000 )  
               b(3) = ( -1.000000  1.000000 -1.000000 )  


     PseudoPot. # 1 for Si read from file:
     /home/karan/pseudos/Si.pbe-n-kjpaw_psl.1.0.0.UPF
     MD5 check sum: c39c59da582df4a0d9f10159256ea34e
     Pseudo is Projector augmented-wave + core cor, Zval =  4.0
     Generated using &quot;atomic&quot; code by A. Dal Corso  v.6.3
     Shape of augmentation charge: PSQ
     Using radial grid of 1141 points,  6 beta functions with: 
                l(1) =   0
                l(2) =   0
                l(3) =   1
                l(4) =   1
                l(5) =   2
                l(6) =   2
     Q(r) pseudized with 0 coefficients 


     atomic species   valence    mass     pseudopotential
        Si             4.00    28.08600     Si( 1.00)

     48 Sym. Ops., with inversion, found (24 have fractional translation)



   Cartesian axes

     site n.     atom                  positions (alat units)
         1           Si  tau(   1) = (   0.0000000   0.0000000   0.0000000  )
         2           Si  tau(   2) = (   0.2500000   0.2500000   0.2500000  )

     number of k points=    28
                       cart. coord. in units 2pi/alat
        k(    1) = (  -0.0833333   0.0833333   0.0833333), wk =   0.0185185
        k(    2) = (  -0.2500000   0.2500000  -0.0833333), wk =   0.0555556
        k(    3) = (  -0.4166667   0.4166667  -0.2500000), wk =   0.0555556
        k(    4) = (   0.4166667  -0.4166667   0.5833333), wk =   0.0555556
        k(    5) = (   0.2500000  -0.2500000   0.4166667), wk =   0.0555556
        k(    6) = (   0.0833333  -0.0833333   0.2500000), wk =   0.0555556
        k(    7) = (  -0.0833333   0.4166667   0.0833333), wk =   0.0555556
        k(    8) = (  -0.2500000   0.5833333  -0.0833333), wk =   0.1111111
        k(    9) = (   0.5833333  -0.2500000   0.7500000), wk =   0.1111111
        k(   10) = (   0.4166667  -0.0833333   0.5833333), wk =   0.1111111
        k(   11) = (   0.2500000   0.0833333   0.4166667), wk =   0.1111111
        k(   12) = (  -0.0833333   0.7500000   0.0833333), wk =   0.0555556
        k(   13) = (   0.7500000  -0.0833333   0.9166667), wk =   0.1111111
        k(   14) = (   0.5833333   0.0833333   0.7500000), wk =   0.1111111
        k(   15) = (   0.4166667   0.2500000   0.5833333), wk =   0.1111111
        k(   16) = (  -0.0833333  -0.9166667   0.0833333), wk =   0.0555556
        k(   17) = (  -0.2500000  -0.7500000  -0.0833333), wk =   0.1111111
        k(   18) = (  -0.0833333  -0.5833333   0.0833333), wk =   0.0555556
        k(   19) = (  -0.2500000   0.2500000   0.2500000), wk =   0.0185185
        k(   20) = (  -0.4166667   0.4166667   0.0833333), wk =   0.0555556
        k(   21) = (   0.4166667  -0.4166667   0.9166667), wk =   0.0555556
        k(   22) = (   0.2500000  -0.2500000   0.7500000), wk =   0.0555556
        k(   23) = (  -0.2500000   0.5833333   0.2500000), wk =   0.0555556
        k(   24) = (   0.5833333  -0.2500000   1.0833333), wk =   0.1111111
        k(   25) = (   0.4166667  -0.0833333   0.9166667), wk =   0.1111111
        k(   26) = (  -0.2500000  -1.0833333   0.2500000), wk =   0.0555556
        k(   27) = (  -0.4166667   0.4166667   0.4166667), wk =   0.0185185
        k(   28) = (   0.4166667  -0.4166667   1.2500000), wk =   0.0555556

     Dense  grid:     6423 G-vectors     FFT dimensions: (  32,  32,  32)

     Estimated max dynamical RAM per process >       4.04 MB

     Estimated total dynamical RAM >      32.34 MB

     Check: negative core charge=   -0.000004

     Initial potential from superposition of free atoms

     starting charge       7.9989, renormalised to       8.0000
     Starting wfcs are    8 randomized atomic wfcs
     Checking if some PAW data can be deallocated... 

     total cpu time spent up to now is        0.2 secs

     Self-consistent Calculation

     iteration #  1     ecut=    30.00 Ry     beta= 0.60
     Davidson diagonalization with overlap
     ethr =  1.00E-02,  avg # of iterations =  2.0

     Threshold (ethr) on eigenvalues was too large:
     Diagonalizing with lowered threshold

     Davidson diagonalization with overlap
     ethr =  5.39E-04,  avg # of iterations =  1.6

     total cpu time spent up to now is        0.3 secs

     total energy              =     -93.44884494 Ry
     estimated scf accuracy    <       0.04671445 Ry

     iteration #  2     ecut=    30.00 Ry     beta= 0.60
     Davidson diagonalization with overlap
     ethr =  5.84E-04,  avg # of iterations =  1.0

     total cpu time spent up to now is        0.4 secs

     total energy              =     -93.44934187 Ry
     estimated scf accuracy    <       0.00570100 Ry

     iteration #  3     ecut=    30.00 Ry     beta= 0.60
     Davidson diagonalization with overlap
     ethr =  7.13E-05,  avg # of iterations =  2.1

     total cpu time spent up to now is        0.5 secs

     total energy              =     -93.45004777 Ry
     estimated scf accuracy    <       0.00010831 Ry

     iteration #  4     ecut=    30.00 Ry     beta= 0.60
     Davidson diagonalization with overlap
     ethr =  1.35E-06,  avg # of iterations =  4.8

     total cpu time spent up to now is        0.6 secs

     total energy              =     -93.45016306 Ry
     estimated scf accuracy    <       0.00000622 Ry

     iteration #  5     ecut=    30.00 Ry     beta= 0.60
     Davidson diagonalization with overlap
     ethr =  7.77E-08,  avg # of iterations =  4.5

     total cpu time spent up to now is        0.7 secs

     End of self-consistent calculation

          k =-0.0833 0.0833 0.0833 (   842 PWs)   bands (ev):

    -5.9689   4.4697   5.2096   5.2096

          k =-0.2500 0.2500-0.0833 (   824 PWs)   bands (ev):

    -5.5258   2.4540   4.0658   5.0036

          k =-0.4167 0.4167-0.2500 (   818 PWs)   bands (ev):

    -4.5195  -0.1217   3.6068   4.4090

          k = 0.4167-0.4167 0.5833 (   817 PWs)   bands (ev):

    -3.8933  -1.1667   3.6544   4.0592

          k = 0.2500-0.2500 0.4167 (   820 PWs)   bands (ev):

    -4.8966   0.6642   4.1198   4.1252

          k = 0.0833-0.0833 0.2500 (   824 PWs)   bands (ev):

    -5.7450   3.4078   4.6190   4.7618

          k =-0.0833 0.4167 0.0833 (   826 PWs)   bands (ev):

    -5.3011   2.2158   3.9067   3.9419

          k =-0.2500 0.5833-0.0833 (   820 PWs)   bands (ev):

    -4.4580   0.4771   2.7001   3.5767

          k = 0.5833-0.2500 0.7500 (   815 PWs)   bands (ev):

    -3.4464  -1.1119   2.1175   3.3734

          k = 0.4167-0.0833 0.5833 (   818 PWs)   bands (ev):

    -4.0979  -0.1560   2.1066   3.8146

          k = 0.2500 0.0833 0.4167 (   824 PWs)   bands (ev):

    -5.0929   1.4605   3.3432   4.4193

          k =-0.0833 0.7500 0.0833 (   812 PWs)   bands (ev):

    -3.7942  -0.3403   2.6777   2.9804

          k = 0.7500-0.0833 0.9167 (   808 PWs)   bands (ev):

    -2.6932  -1.5952   1.9191   2.6174

          k = 0.5833 0.0833 0.7500 (   813 PWs)   bands (ev):

    -3.0552  -1.2477   1.4679   3.1191

          k = 0.4167 0.2500 0.5833 (   815 PWs)   bands (ev):

    -4.0031  -0.7320   2.9349   3.9008

          k =-0.0833-0.9167 0.0833 (   807 PWs)   bands (ev):

    -2.7692  -1.5988   2.4293   2.7785

          k =-0.2500-0.7500-0.0833 (   811 PWs)   bands (ev):

    -3.6432  -0.5415   2.2013   2.9336

          k =-0.0833-0.5833 0.0833 (   828 PWs)   bands (ev):

    -4.6460   0.9523   3.1751   3.3757

          k =-0.2500 0.2500 0.2500 (   821 PWs)   bands (ev):

    -5.3134   1.5538   4.6351   4.6351

          k =-0.4167 0.4167 0.0833 (   818 PWs)   bands (ev):

    -4.6850   0.6237   2.6644   4.4712

          k = 0.4167-0.4167 0.9167 (   813 PWs)   bands (ev):

    -3.6044  -0.7531   1.6537   3.7489

          k = 0.2500-0.2500 0.7500 (   818 PWs)   bands (ev):

    -3.5520  -0.8292   2.0821   3.3061

          k =-0.2500 0.5833 0.2500 (   815 PWs)   bands (ev):

    -4.2948  -0.1184   3.0562   3.6528

          k = 0.5833-0.2500 1.0833 (   814 PWs)   bands (ev):

    -3.3724  -0.8890   1.7509   2.9395

          k = 0.4167-0.0833 0.9167 (   811 PWs)   bands (ev):

    -2.6068  -1.6027   1.6211   2.3323

          k =-0.2500-1.0833 0.2500 (   816 PWs)   bands (ev):

    -2.8045  -1.4942   1.5040   3.1250

          k =-0.4167 0.4167 0.4167 (   817 PWs)   bands (ev):

    -4.2242  -0.7967   4.2647   4.2647

          k = 0.4167-0.4167 1.2500 (   818 PWs)   bands (ev):

    -3.6728  -1.1049   2.5449   3.8642

     highest occupied level (ev):     5.2096

!    total energy              =     -93.45016720 Ry
     total all-electron energy =     -1160.141897 Ry
     estimated scf accuracy    <       0.00000022 Ry

     The total energy is the sum of the following terms:
     one-electron contribution =       5.07680062 Ry
     hartree contribution      =       1.17748597 Ry
     xc contribution           =     -12.20710881 Ry
     ewald contribution        =     -16.32341161 Ry
     one-center paw contrib.   =     -71.17393338 Ry

     convergence has been achieved in   5 iterations

     Writing all to output data dir ./silicon.save/
 
     init_run     :      0.07s CPU      0.09s WALL (       1 calls)
     electrons    :      0.50s CPU      0.59s WALL (       1 calls)

     Called by init_run:
     wfcinit      :      0.01s CPU      0.01s WALL (       1 calls)
     potinit      :      0.04s CPU      0.06s WALL (       1 calls)
     hinit0       :      0.01s CPU      0.02s WALL (       1 calls)

     Called by electrons:
     c_bands      :      0.19s CPU      0.21s WALL (       6 calls)
     sum_band     :      0.04s CPU      0.05s WALL (       6 calls)
     v_of_rho     :      0.01s CPU      0.01s WALL (       6 calls)
     newd         :      0.01s CPU      0.02s WALL (       6 calls)
     PAW_pot      :      0.29s CPU      0.36s WALL (       6 calls)
     mix_rho      :      0.00s CPU      0.00s WALL (       6 calls)

     Called by c_bands:
     init_us_2    :      0.01s CPU      0.01s WALL (     364 calls)
     init_us_2:cp :      0.01s CPU      0.01s WALL (     364 calls)
     cegterg      :      0.12s CPU      0.13s WALL (     168 calls)

     Called by *egterg:
     cdiaghg      :      0.01s CPU      0.01s WALL (     588 calls)
     h_psi        :      0.09s CPU      0.10s WALL (     644 calls)
     s_psi        :      0.00s CPU      0.00s WALL (     644 calls)
     g_psi        :      0.00s CPU      0.00s WALL (     448 calls)

     Called by h_psi:
     h_psi:calbec :      0.01s CPU      0.01s WALL (     644 calls)
     vloc_psi     :      0.08s CPU      0.08s WALL (     644 calls)
     add_vuspsi   :      0.00s CPU      0.00s WALL (     644 calls)

     General routines
     calbec       :      0.01s CPU      0.01s WALL (     812 calls)
     fft          :      0.00s CPU      0.00s WALL (      67 calls)
     ffts         :      0.00s CPU      0.00s WALL (       6 calls)
     fftw         :      0.08s CPU      0.09s WALL (    5106 calls)
 
     Parallel routines
 
     PWSCF        :      0.63s CPU      0.76s WALL

 
   This run was terminated on:  17:42:29  13Mar2026            

=------------------------------------------------------------------------------=
   JOB DONE.
=------------------------------------------------------------------------------=
