
     Program PWSCF v.7.1 starts on 13Mar2026 at 17:41:59 

     This program is part of the open-source Quantum ESPRESSO suite
     for quantum simulation of materials; please cite
         "P. Giannozzi et al., J. Phys.:Condens. Matter 21 395502 (2009);
         "P. Giannozzi et al., J. Phys.:Condens. Matter 29 465901 (2017);
         "P. Giannozzi et al., J. Chem. Phys. 152 154105 (2020);
          URL http://www.quantum-espresso.org", 
     in publications or presentations arising from this work. More details at
     http://www.quantum-espresso.org/quote

     Parallel version (MPI), running on     8 processors

     MPI processes distributed on     1 nodes
     11517 MiB available memory on the printing compute node when the environment starts
 
     Reading input from scf.in

     Current dimensions of program PWSCF are:
     Max number of different atomic species (ntypx) = 10
     Max number of k-points (npk) =  40000
     Max angular momentum in pseudopotentials (lmaxx) =  4
     file Si.pbe-n-kjpaw_psl.1.0.0.UPF: wavefunction(s)  3S 3P renormalized
 
     R & G space division:  proc/nbgrp/npool/nimage =       8
     Subspace diagonalization in iterative solution of the eigenvalue problem:
     a serial algorithm will be used

 
     Parallelization info
     --------------------
     sticks:   dense  smooth     PW     G-vecs:    dense   smooth      PW
     Min          45      45     15                  579      579     117
     Max          46      46     16                  582      582     121
     Sum         367     367    121                 4645     4645     941
 
     Using Slab Decomposition
 


     bravais-lattice index     =            2
     lattice parameter (alat)  =       9.4213  a.u.
     unit-cell volume          =     209.0609 (a.u.)^3
     number of atoms/cell      =            2
     number of atomic types    =            1
     number of electrons       =         8.00
     number of Kohn-Sham states=            4
     kinetic-energy cutoff     =      30.0000  Ry
     charge density cutoff     =     120.0000  Ry
     scf convergence threshold =      1.0E-06
     mixing beta               =       0.6000
     number of iterations used =            8  plain     mixing
     Exchange-correlation= SLA  PW   PBX  PBC
                           (   1   4   3   4   0   0   0)

     celldm(1)=   9.421303  celldm(2)=   0.000000  celldm(3)=   0.000000
     celldm(4)=   0.000000  celldm(5)=   0.000000  celldm(6)=   0.000000

     crystal axes: (cart. coord. in units of alat)
               a(1) = (  -0.500000   0.000000   0.500000 )  
               a(2) = (   0.000000   0.500000   0.500000 )  
               a(3) = (  -0.500000   0.500000   0.000000 )  

     reciprocal axes: (cart. coord. in units 2 pi/alat)
               b(1) = ( -1.000000 -1.000000  1.000000 )  
               b(2) = (  1.000000  1.000000  1.000000 )  
               b(3) = ( -1.000000  1.000000 -1.000000 )  


     PseudoPot. # 1 for Si read from file:
     /home/karan/pseudos/Si.pbe-n-kjpaw_psl.1.0.0.UPF
     MD5 check sum: c39c59da582df4a0d9f10159256ea34e
     Pseudo is Projector augmented-wave + core cor, Zval =  4.0
     Generated using &quot;atomic&quot; code by A. Dal Corso  v.6.3
     Shape of augmentation charge: PSQ
     Using radial grid of 1141 points,  6 beta functions with: 
                l(1) =   0
                l(2) =   0
                l(3) =   1
                l(4) =   1
                l(5) =   2
                l(6) =   2
     Q(r) pseudized with 0 coefficients 


     atomic species   valence    mass     pseudopotential
        Si             4.00    28.08600     Si( 1.00)

     48 Sym. Ops., with inversion, found (24 have fractional translation)



   Cartesian axes

     site n.     atom                  positions (alat units)
         1           Si  tau(   1) = (   0.0000000   0.0000000   0.0000000  )
         2           Si  tau(   2) = (   0.2500000   0.2500000   0.2500000  )

     number of k points=    28
                       cart. coord. in units 2pi/alat
        k(    1) = (  -0.0833333   0.0833333   0.0833333), wk =   0.0185185
        k(    2) = (  -0.2500000   0.2500000  -0.0833333), wk =   0.0555556
        k(    3) = (  -0.4166667   0.4166667  -0.2500000), wk =   0.0555556
        k(    4) = (   0.4166667  -0.4166667   0.5833333), wk =   0.0555556
        k(    5) = (   0.2500000  -0.2500000   0.4166667), wk =   0.0555556
        k(    6) = (   0.0833333  -0.0833333   0.2500000), wk =   0.0555556
        k(    7) = (  -0.0833333   0.4166667   0.0833333), wk =   0.0555556
        k(    8) = (  -0.2500000   0.5833333  -0.0833333), wk =   0.1111111
        k(    9) = (   0.5833333  -0.2500000   0.7500000), wk =   0.1111111
        k(   10) = (   0.4166667  -0.0833333   0.5833333), wk =   0.1111111
        k(   11) = (   0.2500000   0.0833333   0.4166667), wk =   0.1111111
        k(   12) = (  -0.0833333   0.7500000   0.0833333), wk =   0.0555556
        k(   13) = (   0.7500000  -0.0833333   0.9166667), wk =   0.1111111
        k(   14) = (   0.5833333   0.0833333   0.7500000), wk =   0.1111111
        k(   15) = (   0.4166667   0.2500000   0.5833333), wk =   0.1111111
        k(   16) = (  -0.0833333  -0.9166667   0.0833333), wk =   0.0555556
        k(   17) = (  -0.2500000  -0.7500000  -0.0833333), wk =   0.1111111
        k(   18) = (  -0.0833333  -0.5833333   0.0833333), wk =   0.0555556
        k(   19) = (  -0.2500000   0.2500000   0.2500000), wk =   0.0185185
        k(   20) = (  -0.4166667   0.4166667   0.0833333), wk =   0.0555556
        k(   21) = (   0.4166667  -0.4166667   0.9166667), wk =   0.0555556
        k(   22) = (   0.2500000  -0.2500000   0.7500000), wk =   0.0555556
        k(   23) = (  -0.2500000   0.5833333   0.2500000), wk =   0.0555556
        k(   24) = (   0.5833333  -0.2500000   1.0833333), wk =   0.1111111
        k(   25) = (   0.4166667  -0.0833333   0.9166667), wk =   0.1111111
        k(   26) = (  -0.2500000  -1.0833333   0.2500000), wk =   0.0555556
        k(   27) = (  -0.4166667   0.4166667   0.4166667), wk =   0.0185185
        k(   28) = (   0.4166667  -0.4166667   1.2500000), wk =   0.0555556

     Dense  grid:     4645 G-vectors     FFT dimensions: (  24,  24,  24)

     Estimated max dynamical RAM per process >       3.07 MB

     Estimated total dynamical RAM >      24.59 MB

     Check: negative core charge=   -0.000003

     Initial potential from superposition of free atoms

     starting charge       7.9989, renormalised to       8.0000
     Starting wfcs are    8 randomized atomic wfcs
     Checking if some PAW data can be deallocated... 

     total cpu time spent up to now is        0.2 secs

     Self-consistent Calculation

     iteration #  1     ecut=    30.00 Ry     beta= 0.60
     Davidson diagonalization with overlap
     ethr =  1.00E-02,  avg # of iterations =  2.0

     Threshold (ethr) on eigenvalues was too large:
     Diagonalizing with lowered threshold

     Davidson diagonalization with overlap
     ethr =  9.23E-04,  avg # of iterations =  1.1

     total cpu time spent up to now is        0.3 secs

     total energy              =     -93.37008975 Ry
     estimated scf accuracy    <       0.07943597 Ry

     iteration #  2     ecut=    30.00 Ry     beta= 0.60
     Davidson diagonalization with overlap
     ethr =  9.93E-04,  avg # of iterations =  1.0

     total cpu time spent up to now is        0.4 secs

     total energy              =     -93.37216193 Ry
     estimated scf accuracy    <       0.00728830 Ry

     iteration #  3     ecut=    30.00 Ry     beta= 0.60
     Davidson diagonalization with overlap
     ethr =  9.11E-05,  avg # of iterations =  2.3

     total cpu time spent up to now is        0.5 secs

     total energy              =     -93.37413734 Ry
     estimated scf accuracy    <       0.00026063 Ry

     iteration #  4     ecut=    30.00 Ry     beta= 0.60
     Davidson diagonalization with overlap
     ethr =  3.26E-06,  avg # of iterations =  3.9

     total cpu time spent up to now is        0.6 secs

     total energy              =     -93.37427052 Ry
     estimated scf accuracy    <       0.00004560 Ry

     iteration #  5     ecut=    30.00 Ry     beta= 0.60
     Davidson diagonalization with overlap
     ethr =  5.70E-07,  avg # of iterations =  3.4

     total cpu time spent up to now is        0.7 secs

     total energy              =     -93.37428556 Ry
     estimated scf accuracy    <       0.00000123 Ry

     iteration #  6     ecut=    30.00 Ry     beta= 0.60
     Davidson diagonalization with overlap
     ethr =  1.53E-08,  avg # of iterations =  4.6

     total cpu time spent up to now is        0.8 secs

     End of self-consistent calculation

          k =-0.0833 0.0833 0.0833 (   573 PWs)   bands (ev):

    -4.6040   8.2793   9.0381   9.0381

          k =-0.2500 0.2500-0.0833 (   570 PWs)   bands (ev):

    -4.0096   5.9216   7.4654   8.8357

          k =-0.4167 0.4167-0.2500 (   584 PWs)   bands (ev):

    -2.6101   2.5144   6.9925   8.0491

          k = 0.4167-0.4167 0.5833 (   581 PWs)   bands (ev):

    -1.6211   0.9906   7.1411   7.5472

          k = 0.2500-0.2500 0.4167 (   583 PWs)   bands (ev):

    -3.1479   3.5738   7.5676   7.7693

          k = 0.0833-0.0833 0.2500 (   571 PWs)   bands (ev):

    -4.3049   7.1242   8.1774   8.5673

          k =-0.0833 0.4167 0.0833 (   576 PWs)   bands (ev):

    -3.7108   5.9101   7.2564   7.3829

          k =-0.2500 0.5833-0.0833 (   582 PWs)   bands (ev):

    -2.5623   3.7472   5.6210   6.7949

          k = 0.5833-0.2500 0.7500 (   577 PWs)   bands (ev):

    -1.0373   1.3650   4.9813   6.4629

          k = 0.4167-0.0833 0.5833 (   579 PWs)   bands (ev):

    -2.0413   2.8280   4.7976   7.1342

          k = 0.2500 0.0833 0.4167 (   579 PWs)   bands (ev):

    -3.4245   4.7876   6.5039   8.0644

          k =-0.0833 0.7500 0.0833 (   585 PWs)   bands (ev):

    -1.6833   2.9567   5.4916   5.9912

          k = 0.7500-0.0833 0.9167 (   583 PWs)   bands (ev):

    -0.1360   1.3211   4.3177   5.4004

          k = 0.5833 0.0833 0.7500 (   580 PWs)   bands (ev):

    -0.5129   1.5439   3.7550   6.1099

          k = 0.4167 0.2500 0.5833 (   584 PWs)   bands (ev):

    -1.8583   1.7397   6.1619   7.2826

          k =-0.0833-0.9167 0.0833 (   586 PWs)   bands (ev):

    -0.2958   1.2840   5.1445   5.7290

          k =-0.2500-0.7500-0.0833 (   579 PWs)   bands (ev):

    -1.4479   2.6442   4.8188   5.8215

          k =-0.0833-0.5833 0.0833 (   580 PWs)   bands (ev):

    -2.8313   4.5552   6.2363   6.5075

          k =-0.2500 0.2500 0.2500 (   576 PWs)   bands (ev):

    -3.7197   4.6790   8.2917   8.2917

          k =-0.4167 0.4167 0.0833 (   580 PWs)   bands (ev):

    -2.8607   3.7243   5.5798   8.1136

          k = 0.4167-0.4167 0.9167 (   579 PWs)   bands (ev):

    -1.3162   2.0632   4.1198   7.0778

          k = 0.2500-0.2500 0.7500 (   579 PWs)   bands (ev):

    -1.2691   1.9750   4.7933   6.4471

          k =-0.2500 0.5833 0.2500 (   583 PWs)   bands (ev):

    -2.3143   2.6816   6.3390   6.9164

          k = 0.5833-0.2500 1.0833 (   575 PWs)   bands (ev):

    -1.0172   2.0691   4.2232   5.7777

          k = 0.4167-0.0833 0.9167 (   585 PWs)   bands (ev):

     0.0672   1.3100   3.8719   4.8782

          k =-0.2500-1.0833 0.2500 (   581 PWs)   bands (ev):

    -0.1895   1.3214   3.7134   6.2042

          k =-0.4167 0.4167 0.4167 (   589 PWs)   bands (ev):

    -2.1496   1.5265   7.8550   7.8550

          k = 0.4167-0.4167 1.2500 (   578 PWs)   bands (ev):

    -1.3321   1.2043   5.6080   7.2511

     highest occupied level (ev):     9.0381

!    total energy              =     -93.37428646 Ry
     total all-electron energy =     -1160.066016 Ry
     estimated scf accuracy    <       0.00000052 Ry

     The total energy is the sum of the following terms:
     one-electron contribution =       7.93344620 Ry
     hartree contribution      =       0.88154449 Ry
     xc contribution           =     -12.65058011 Ry
     ewald contribution        =     -18.29657123 Ry
     one-center paw contrib.   =     -71.24212581 Ry

     convergence has been achieved in   6 iterations

     Writing all to output data dir ./silicon.save/
 
     init_run     :      0.11s CPU      0.12s WALL (       1 calls)
     electrons    :      0.51s CPU      0.60s WALL (       1 calls)

     Called by init_run:
     wfcinit      :      0.01s CPU      0.01s WALL (       1 calls)
     potinit      :      0.08s CPU      0.09s WALL (       1 calls)
     hinit0       :      0.02s CPU      0.02s WALL (       1 calls)

     Called by electrons:
     c_bands      :      0.18s CPU      0.19s WALL (       7 calls)
     sum_band     :      0.04s CPU      0.04s WALL (       7 calls)
     v_of_rho     :      0.00s CPU      0.00s WALL (       7 calls)
     newd         :      0.01s CPU      0.02s WALL (       7 calls)
     PAW_pot      :      0.36s CPU      0.43s WALL (       7 calls)
     mix_rho      :      0.00s CPU      0.00s WALL (       7 calls)

     Called by c_bands:
     init_us_2    :      0.01s CPU      0.01s WALL (     420 calls)
     init_us_2:cp :      0.01s CPU      0.01s WALL (     420 calls)
     cegterg      :      0.11s CPU      0.13s WALL (     196 calls)

     Called by *egterg:
     cdiaghg      :      0.01s CPU      0.01s WALL (     677 calls)
     h_psi        :      0.09s CPU      0.10s WALL (     733 calls)
     s_psi        :      0.00s CPU      0.00s WALL (     733 calls)
     g_psi        :      0.00s CPU      0.00s WALL (     509 calls)

     Called by h_psi:
     h_psi:calbec :      0.01s CPU      0.01s WALL (     733 calls)
     vloc_psi     :      0.07s CPU      0.08s WALL (     733 calls)
     add_vuspsi   :      0.00s CPU      0.00s WALL (     733 calls)

     General routines
     calbec       :      0.01s CPU      0.01s WALL (     929 calls)
     fft          :      0.00s CPU      0.00s WALL (      78 calls)
     ffts         :      0.00s CPU      0.00s WALL (       7 calls)
     fftw         :      0.07s CPU      0.09s WALL (    5984 calls)
 
     Parallel routines
 
     PWSCF        :      0.67s CPU      0.81s WALL

 
   This run was terminated on:  17:42: 0  13Mar2026            

=------------------------------------------------------------------------------=
   JOB DONE.
=------------------------------------------------------------------------------=
