
     Program PWSCF v.7.1 starts on 13Mar2026 at 17:42:25 

     This program is part of the open-source Quantum ESPRESSO suite
     for quantum simulation of materials; please cite
         "P. Giannozzi et al., J. Phys.:Condens. Matter 21 395502 (2009);
         "P. Giannozzi et al., J. Phys.:Condens. Matter 29 465901 (2017);
         "P. Giannozzi et al., J. Chem. Phys. 152 154105 (2020);
          URL http://www.quantum-espresso.org", 
     in publications or presentations arising from this work. More details at
     http://www.quantum-espresso.org/quote

     Parallel version (MPI), running on     8 processors

     MPI processes distributed on     1 nodes
     11521 MiB available memory on the printing compute node when the environment starts
 
     Reading input from scf.in

     Current dimensions of program PWSCF are:
     Max number of different atomic species (ntypx) = 10
     Max number of k-points (npk) =  40000
     Max angular momentum in pseudopotentials (lmaxx) =  4
     file Si.pbe-n-kjpaw_psl.1.0.0.UPF: wavefunction(s)  3S 3P renormalized
 
     R & G space division:  proc/nbgrp/npool/nimage =       8
     Subspace diagonalization in iterative solution of the eigenvalue problem:
     a serial algorithm will be used

 
     Parallelization info
     --------------------
     sticks:   dense  smooth     PW     G-vecs:    dense   smooth      PW
     Min          54      54     18                  776      776     153
     Max          55      55     19                  781      781     156
     Sum         439     439    151                 6231     6231    1243
 
     Using Slab Decomposition
 


     bravais-lattice index     =            2
     lattice parameter (alat)  =      10.4048  a.u.
     unit-cell volume          =     281.6092 (a.u.)^3
     number of atoms/cell      =            2
     number of atomic types    =            1
     number of electrons       =         8.00
     number of Kohn-Sham states=            4
     kinetic-energy cutoff     =      30.0000  Ry
     charge density cutoff     =     120.0000  Ry
     scf convergence threshold =      1.0E-06
     mixing beta               =       0.6000
     number of iterations used =            8  plain     mixing
     Exchange-correlation= SLA  PW   PBX  PBC
                           (   1   4   3   4   0   0   0)

     celldm(1)=  10.404845  celldm(2)=   0.000000  celldm(3)=   0.000000
     celldm(4)=   0.000000  celldm(5)=   0.000000  celldm(6)=   0.000000

     crystal axes: (cart. coord. in units of alat)
               a(1) = (  -0.500000   0.000000   0.500000 )  
               a(2) = (   0.000000   0.500000   0.500000 )  
               a(3) = (  -0.500000   0.500000   0.000000 )  

     reciprocal axes: (cart. coord. in units 2 pi/alat)
               b(1) = ( -1.000000 -1.000000  1.000000 )  
               b(2) = (  1.000000  1.000000  1.000000 )  
               b(3) = ( -1.000000  1.000000 -1.000000 )  


     PseudoPot. # 1 for Si read from file:
     /home/karan/pseudos/Si.pbe-n-kjpaw_psl.1.0.0.UPF
     MD5 check sum: c39c59da582df4a0d9f10159256ea34e
     Pseudo is Projector augmented-wave + core cor, Zval =  4.0
     Generated using &quot;atomic&quot; code by A. Dal Corso  v.6.3
     Shape of augmentation charge: PSQ
     Using radial grid of 1141 points,  6 beta functions with: 
                l(1) =   0
                l(2) =   0
                l(3) =   1
                l(4) =   1
                l(5) =   2
                l(6) =   2
     Q(r) pseudized with 0 coefficients 


     atomic species   valence    mass     pseudopotential
        Si             4.00    28.08600     Si( 1.00)

     48 Sym. Ops., with inversion, found (24 have fractional translation)



   Cartesian axes

     site n.     atom                  positions (alat units)
         1           Si  tau(   1) = (   0.0000000   0.0000000   0.0000000  )
         2           Si  tau(   2) = (   0.2500000   0.2500000   0.2500000  )

     number of k points=    28
                       cart. coord. in units 2pi/alat
        k(    1) = (  -0.0833333   0.0833333   0.0833333), wk =   0.0185185
        k(    2) = (  -0.2500000   0.2500000  -0.0833333), wk =   0.0555556
        k(    3) = (  -0.4166667   0.4166667  -0.2500000), wk =   0.0555556
        k(    4) = (   0.4166667  -0.4166667   0.5833333), wk =   0.0555556
        k(    5) = (   0.2500000  -0.2500000   0.4166667), wk =   0.0555556
        k(    6) = (   0.0833333  -0.0833333   0.2500000), wk =   0.0555556
        k(    7) = (  -0.0833333   0.4166667   0.0833333), wk =   0.0555556
        k(    8) = (  -0.2500000   0.5833333  -0.0833333), wk =   0.1111111
        k(    9) = (   0.5833333  -0.2500000   0.7500000), wk =   0.1111111
        k(   10) = (   0.4166667  -0.0833333   0.5833333), wk =   0.1111111
        k(   11) = (   0.2500000   0.0833333   0.4166667), wk =   0.1111111
        k(   12) = (  -0.0833333   0.7500000   0.0833333), wk =   0.0555556
        k(   13) = (   0.7500000  -0.0833333   0.9166667), wk =   0.1111111
        k(   14) = (   0.5833333   0.0833333   0.7500000), wk =   0.1111111
        k(   15) = (   0.4166667   0.2500000   0.5833333), wk =   0.1111111
        k(   16) = (  -0.0833333  -0.9166667   0.0833333), wk =   0.0555556
        k(   17) = (  -0.2500000  -0.7500000  -0.0833333), wk =   0.1111111
        k(   18) = (  -0.0833333  -0.5833333   0.0833333), wk =   0.0555556
        k(   19) = (  -0.2500000   0.2500000   0.2500000), wk =   0.0185185
        k(   20) = (  -0.4166667   0.4166667   0.0833333), wk =   0.0555556
        k(   21) = (   0.4166667  -0.4166667   0.9166667), wk =   0.0555556
        k(   22) = (   0.2500000  -0.2500000   0.7500000), wk =   0.0555556
        k(   23) = (  -0.2500000   0.5833333   0.2500000), wk =   0.0555556
        k(   24) = (   0.5833333  -0.2500000   1.0833333), wk =   0.1111111
        k(   25) = (   0.4166667  -0.0833333   0.9166667), wk =   0.1111111
        k(   26) = (  -0.2500000  -1.0833333   0.2500000), wk =   0.0555556
        k(   27) = (  -0.4166667   0.4166667   0.4166667), wk =   0.0185185
        k(   28) = (   0.4166667  -0.4166667   1.2500000), wk =   0.0555556

     Dense  grid:     6231 G-vectors     FFT dimensions: (  32,  32,  32)

     Estimated max dynamical RAM per process >       3.95 MB

     Estimated total dynamical RAM >      31.61 MB

     Check: negative core charge=   -0.000003

     Initial potential from superposition of free atoms

     starting charge       7.9989, renormalised to       8.0000
     Starting wfcs are    8 randomized atomic wfcs
     Checking if some PAW data can be deallocated... 

     total cpu time spent up to now is        0.2 secs

     Self-consistent Calculation

     iteration #  1     ecut=    30.00 Ry     beta= 0.60
     Davidson diagonalization with overlap
     ethr =  1.00E-02,  avg # of iterations =  2.0

     Threshold (ethr) on eigenvalues was too large:
     Diagonalizing with lowered threshold

     Davidson diagonalization with overlap
     ethr =  5.79E-04,  avg # of iterations =  1.6

     total cpu time spent up to now is        0.3 secs

     total energy              =     -93.45157471 Ry
     estimated scf accuracy    <       0.05026992 Ry

     iteration #  2     ecut=    30.00 Ry     beta= 0.60
     Davidson diagonalization with overlap
     ethr =  6.28E-04,  avg # of iterations =  1.0

     total cpu time spent up to now is        0.4 secs

     total energy              =     -93.45215748 Ry
     estimated scf accuracy    <       0.00594152 Ry

     iteration #  3     ecut=    30.00 Ry     beta= 0.60
     Davidson diagonalization with overlap
     ethr =  7.43E-05,  avg # of iterations =  2.1

     total cpu time spent up to now is        0.5 secs

     total energy              =     -93.45298716 Ry
     estimated scf accuracy    <       0.00012713 Ry

     iteration #  4     ecut=    30.00 Ry     beta= 0.60
     Davidson diagonalization with overlap
     ethr =  1.59E-06,  avg # of iterations =  4.7

     total cpu time spent up to now is        0.6 secs

     total energy              =     -93.45311204 Ry
     estimated scf accuracy    <       0.00001115 Ry

     iteration #  5     ecut=    30.00 Ry     beta= 0.60
     Davidson diagonalization with overlap
     ethr =  1.39E-07,  avg # of iterations =  3.7

     total cpu time spent up to now is        0.7 secs

     End of self-consistent calculation

          k =-0.0833 0.0833 0.0833 (   785 PWs)   bands (ev):

    -5.8158   4.9187   5.6428   5.6428

          k =-0.2500 0.2500-0.0833 (   792 PWs)   bands (ev):

    -5.3547   2.8679   4.4482   5.4343

          k =-0.4167 0.4167-0.2500 (   785 PWs)   bands (ev):

    -4.3023   0.1900   3.9865   4.8164

          k = 0.4167-0.4167 0.5833 (   785 PWs)   bands (ev):

    -3.6376  -0.9085   4.0444   4.4497

          k = 0.2500-0.2500 0.4167 (   782 PWs)   bands (ev):

    -4.6980   1.0089   4.5124   4.5283

          k = 0.0833-0.0833 0.2500 (   791 PWs)   bands (ev):

    -5.5829   3.8539   5.0214   5.1881

          k =-0.0833 0.4167 0.0833 (   791 PWs)   bands (ev):

    -5.1212   2.6577   4.2906   4.3153

          k =-0.2500 0.5833-0.0833 (   783 PWs)   bands (ev):

    -4.2420   0.8633   3.0230   3.9383

          k = 0.5833-0.2500 0.7500 (   781 PWs)   bands (ev):

    -3.1744  -0.8131   2.4297   3.7221

          k = 0.4167-0.0833 0.5833 (   781 PWs)   bands (ev):

    -3.8635   0.1977   2.4023   4.1880

          k = 0.2500 0.0833 0.4167 (   788 PWs)   bands (ev):

    -4.9037   1.8574   3.6957   4.8274

          k =-0.0833 0.7500 0.0833 (   781 PWs)   bands (ev):

    -3.5526   0.0401   2.9940   3.3171

          k = 0.7500-0.0833 0.9167 (   775 PWs)   bands (ev):

    -2.4006  -1.2610   2.1899   2.9303

          k = 0.5833 0.0833 0.7500 (   779 PWs)   bands (ev):

    -2.7677  -0.9194   1.7208   3.4559

          k = 0.4167 0.2500 0.5833 (   787 PWs)   bands (ev):

    -3.7594  -0.4376   3.2929   4.2806

          k =-0.0833-0.9167 0.0833 (   774 PWs)   bands (ev):

    -2.4850  -1.2669   2.7341   3.1079

          k =-0.2500-0.7500-0.0833 (   775 PWs)   bands (ev):

    -3.3921  -0.1731   2.4933   3.2597

          k =-0.0833-0.5833 0.0833 (   788 PWs)   bands (ev):

    -4.4394   1.3728   3.5170   3.7271

          k =-0.2500 0.2500 0.2500 (   790 PWs)   bands (ev):

    -5.1331   1.9240   5.0465   5.0465

          k =-0.4167 0.4167 0.0833 (   789 PWs)   bands (ev):

    -4.4775   0.9926   2.9871   4.8796

          k = 0.4167-0.4167 0.9167 (   783 PWs)   bands (ev):

    -3.3442  -0.4192   1.9239   4.1222

          k = 0.2500-0.2500 0.7500 (   781 PWs)   bands (ev):

    -3.2918  -0.4970   2.3797   3.6580

          k =-0.2500 0.5833 0.2500 (   783 PWs)   bands (ev):

    -4.0692   0.2147   3.4188   4.0191

          k = 0.5833-0.2500 1.0833 (   778 PWs)   bands (ev):

    -3.1041  -0.5430   2.0228   3.2612

          k = 0.4167-0.0833 0.9167 (   769 PWs)   bands (ev):

    -2.3034  -1.2686   1.8747   2.6211

          k =-0.2500-1.0833 0.2500 (   773 PWs)   bands (ev):

    -2.5081  -1.1677   1.7526   3.4695

          k =-0.4167 0.4167 0.4167 (   772 PWs)   bands (ev):

    -3.9889  -0.5224   4.6662   4.6662

          k = 0.4167-0.4167 1.2500 (   778 PWs)   bands (ev):

    -3.4089  -0.8265   2.8834   4.2439

     highest occupied level (ev):     5.6428

!    total energy              =     -93.45311684 Ry
     total all-electron energy =     -1160.144847 Ry
     estimated scf accuracy    <       0.00000027 Ry

     The total energy is the sum of the following terms:
     one-electron contribution =       5.41575659 Ry
     hartree contribution      =       1.13719264 Ry
     xc contribution           =     -12.25880011 Ry
     ewald contribution        =     -16.56704460 Ry
     one-center paw contrib.   =     -71.18022135 Ry

     convergence has been achieved in   5 iterations

     Writing all to output data dir ./silicon.save/
 
     init_run     :      0.09s CPU      0.10s WALL (       1 calls)
     electrons    :      0.48s CPU      0.53s WALL (       1 calls)

     Called by init_run:
     wfcinit      :      0.01s CPU      0.01s WALL (       1 calls)
     potinit      :      0.06s CPU      0.06s WALL (       1 calls)
     hinit0       :      0.01s CPU      0.02s WALL (       1 calls)

     Called by electrons:
     c_bands      :      0.19s CPU      0.19s WALL (       6 calls)
     sum_band     :      0.04s CPU      0.05s WALL (       6 calls)
     v_of_rho     :      0.01s CPU      0.01s WALL (       6 calls)
     newd         :      0.01s CPU      0.01s WALL (       6 calls)
     PAW_pot      :      0.29s CPU      0.33s WALL (       6 calls)
     mix_rho      :      0.00s CPU      0.00s WALL (       6 calls)

     Called by c_bands:
     init_us_2    :      0.01s CPU      0.01s WALL (     364 calls)
     init_us_2:cp :      0.01s CPU      0.01s WALL (     364 calls)
     cegterg      :      0.11s CPU      0.11s WALL (     168 calls)

     Called by *egterg:
     cdiaghg      :      0.01s CPU      0.01s WALL (     560 calls)
     h_psi        :      0.09s CPU      0.09s WALL (     616 calls)
     s_psi        :      0.00s CPU      0.00s WALL (     616 calls)
     g_psi        :      0.00s CPU      0.00s WALL (     420 calls)

     Called by h_psi:
     h_psi:calbec :      0.01s CPU      0.01s WALL (     616 calls)
     vloc_psi     :      0.08s CPU      0.08s WALL (     616 calls)
     add_vuspsi   :      0.00s CPU      0.00s WALL (     616 calls)

     General routines
     calbec       :      0.01s CPU      0.01s WALL (     784 calls)
     fft          :      0.00s CPU      0.00s WALL (      67 calls)
     ffts         :      0.00s CPU      0.00s WALL (       6 calls)
     fftw         :      0.08s CPU      0.08s WALL (    5004 calls)
 
     Parallel routines
 
     PWSCF        :      0.63s CPU      0.73s WALL

 
   This run was terminated on:  17:42:25  13Mar2026            

=------------------------------------------------------------------------------=
   JOB DONE.
=------------------------------------------------------------------------------=
