
     Program PWSCF v.7.1 starts on 13Mar2026 at 17:42:26 

     This program is part of the open-source Quantum ESPRESSO suite
     for quantum simulation of materials; please cite
         "P. Giannozzi et al., J. Phys.:Condens. Matter 21 395502 (2009);
         "P. Giannozzi et al., J. Phys.:Condens. Matter 29 465901 (2017);
         "P. Giannozzi et al., J. Chem. Phys. 152 154105 (2020);
          URL http://www.quantum-espresso.org", 
     in publications or presentations arising from this work. More details at
     http://www.quantum-espresso.org/quote

     Parallel version (MPI), running on     8 processors

     MPI processes distributed on     1 nodes
     11518 MiB available memory on the printing compute node when the environment starts
 
     Reading input from scf.in

     Current dimensions of program PWSCF are:
     Max number of different atomic species (ntypx) = 10
     Max number of k-points (npk) =  40000
     Max angular momentum in pseudopotentials (lmaxx) =  4
     file Si.pbe-n-kjpaw_psl.1.0.0.UPF: wavefunction(s)  3S 3P renormalized
 
     R & G space division:  proc/nbgrp/npool/nimage =       8
     Subspace diagonalization in iterative solution of the eigenvalue problem:
     a serial algorithm will be used

 
     Parallelization info
     --------------------
     sticks:   dense  smooth     PW     G-vecs:    dense   smooth      PW
     Min          56      56     18                  796      796     153
     Max          57      57     19                  797      797     156
     Sum         451     451    151                 6375     6375    1243
 
     Using Slab Decomposition
 


     bravais-lattice index     =            2
     lattice parameter (alat)  =      10.4566  a.u.
     unit-cell volume          =     285.8333 (a.u.)^3
     number of atoms/cell      =            2
     number of atomic types    =            1
     number of electrons       =         8.00
     number of Kohn-Sham states=            4
     kinetic-energy cutoff     =      30.0000  Ry
     charge density cutoff     =     120.0000  Ry
     scf convergence threshold =      1.0E-06
     mixing beta               =       0.6000
     number of iterations used =            8  plain     mixing
     Exchange-correlation= SLA  PW   PBX  PBC
                           (   1   4   3   4   0   0   0)

     celldm(1)=  10.456611  celldm(2)=   0.000000  celldm(3)=   0.000000
     celldm(4)=   0.000000  celldm(5)=   0.000000  celldm(6)=   0.000000

     crystal axes: (cart. coord. in units of alat)
               a(1) = (  -0.500000   0.000000   0.500000 )  
               a(2) = (   0.000000   0.500000   0.500000 )  
               a(3) = (  -0.500000   0.500000   0.000000 )  

     reciprocal axes: (cart. coord. in units 2 pi/alat)
               b(1) = ( -1.000000 -1.000000  1.000000 )  
               b(2) = (  1.000000  1.000000  1.000000 )  
               b(3) = ( -1.000000  1.000000 -1.000000 )  


     PseudoPot. # 1 for Si read from file:
     /home/karan/pseudos/Si.pbe-n-kjpaw_psl.1.0.0.UPF
     MD5 check sum: c39c59da582df4a0d9f10159256ea34e
     Pseudo is Projector augmented-wave + core cor, Zval =  4.0
     Generated using &quot;atomic&quot; code by A. Dal Corso  v.6.3
     Shape of augmentation charge: PSQ
     Using radial grid of 1141 points,  6 beta functions with: 
                l(1) =   0
                l(2) =   0
                l(3) =   1
                l(4) =   1
                l(5) =   2
                l(6) =   2
     Q(r) pseudized with 0 coefficients 


     atomic species   valence    mass     pseudopotential
        Si             4.00    28.08600     Si( 1.00)

     48 Sym. Ops., with inversion, found (24 have fractional translation)



   Cartesian axes

     site n.     atom                  positions (alat units)
         1           Si  tau(   1) = (   0.0000000   0.0000000   0.0000000  )
         2           Si  tau(   2) = (   0.2500000   0.2500000   0.2500000  )

     number of k points=    28
                       cart. coord. in units 2pi/alat
        k(    1) = (  -0.0833333   0.0833333   0.0833333), wk =   0.0185185
        k(    2) = (  -0.2500000   0.2500000  -0.0833333), wk =   0.0555556
        k(    3) = (  -0.4166667   0.4166667  -0.2500000), wk =   0.0555556
        k(    4) = (   0.4166667  -0.4166667   0.5833333), wk =   0.0555556
        k(    5) = (   0.2500000  -0.2500000   0.4166667), wk =   0.0555556
        k(    6) = (   0.0833333  -0.0833333   0.2500000), wk =   0.0555556
        k(    7) = (  -0.0833333   0.4166667   0.0833333), wk =   0.0555556
        k(    8) = (  -0.2500000   0.5833333  -0.0833333), wk =   0.1111111
        k(    9) = (   0.5833333  -0.2500000   0.7500000), wk =   0.1111111
        k(   10) = (   0.4166667  -0.0833333   0.5833333), wk =   0.1111111
        k(   11) = (   0.2500000   0.0833333   0.4166667), wk =   0.1111111
        k(   12) = (  -0.0833333   0.7500000   0.0833333), wk =   0.0555556
        k(   13) = (   0.7500000  -0.0833333   0.9166667), wk =   0.1111111
        k(   14) = (   0.5833333   0.0833333   0.7500000), wk =   0.1111111
        k(   15) = (   0.4166667   0.2500000   0.5833333), wk =   0.1111111
        k(   16) = (  -0.0833333  -0.9166667   0.0833333), wk =   0.0555556
        k(   17) = (  -0.2500000  -0.7500000  -0.0833333), wk =   0.1111111
        k(   18) = (  -0.0833333  -0.5833333   0.0833333), wk =   0.0555556
        k(   19) = (  -0.2500000   0.2500000   0.2500000), wk =   0.0185185
        k(   20) = (  -0.4166667   0.4166667   0.0833333), wk =   0.0555556
        k(   21) = (   0.4166667  -0.4166667   0.9166667), wk =   0.0555556
        k(   22) = (   0.2500000  -0.2500000   0.7500000), wk =   0.0555556
        k(   23) = (  -0.2500000   0.5833333   0.2500000), wk =   0.0555556
        k(   24) = (   0.5833333  -0.2500000   1.0833333), wk =   0.1111111
        k(   25) = (   0.4166667  -0.0833333   0.9166667), wk =   0.1111111
        k(   26) = (  -0.2500000  -1.0833333   0.2500000), wk =   0.0555556
        k(   27) = (  -0.4166667   0.4166667   0.4166667), wk =   0.0185185
        k(   28) = (   0.4166667  -0.4166667   1.2500000), wk =   0.0555556

     Dense  grid:     6375 G-vectors     FFT dimensions: (  32,  32,  32)

     Estimated max dynamical RAM per process >       4.01 MB

     Estimated total dynamical RAM >      32.07 MB

     Check: negative core charge=   -0.000004

     Initial potential from superposition of free atoms

     starting charge       7.9989, renormalised to       8.0000
     Starting wfcs are    8 randomized atomic wfcs
     Checking if some PAW data can be deallocated... 

     total cpu time spent up to now is        0.2 secs

     Self-consistent Calculation

     iteration #  1     ecut=    30.00 Ry     beta= 0.60
     Davidson diagonalization with overlap
     ethr =  1.00E-02,  avg # of iterations =  2.0

     Threshold (ethr) on eigenvalues was too large:
     Diagonalizing with lowered threshold

     Davidson diagonalization with overlap
     ethr =  5.66E-04,  avg # of iterations =  1.6

     total cpu time spent up to now is        0.3 secs

     total energy              =     -93.45099651 Ry
     estimated scf accuracy    <       0.04908651 Ry

     iteration #  2     ecut=    30.00 Ry     beta= 0.60
     Davidson diagonalization with overlap
     ethr =  6.14E-04,  avg # of iterations =  1.0

     total cpu time spent up to now is        0.4 secs

     total energy              =     -93.45155754 Ry
     estimated scf accuracy    <       0.00584845 Ry

     iteration #  3     ecut=    30.00 Ry     beta= 0.60
     Davidson diagonalization with overlap
     ethr =  7.31E-05,  avg # of iterations =  2.1

     total cpu time spent up to now is        0.5 secs

     total energy              =     -93.45234544 Ry
     estimated scf accuracy    <       0.00012311 Ry

     iteration #  4     ecut=    30.00 Ry     beta= 0.60
     Davidson diagonalization with overlap
     ethr =  1.54E-06,  avg # of iterations =  4.6

     total cpu time spent up to now is        0.7 secs

     total energy              =     -93.45245617 Ry
     estimated scf accuracy    <       0.00001214 Ry

     iteration #  5     ecut=    30.00 Ry     beta= 0.60
     Davidson diagonalization with overlap
     ethr =  1.52E-07,  avg # of iterations =  3.6

     total cpu time spent up to now is        0.8 secs

     End of self-consistent calculation

          k =-0.0833 0.0833 0.0833 (   803 PWs)   bands (ev):

    -5.8675   4.7676   5.4961   5.4961

          k =-0.2500 0.2500-0.0833 (   803 PWs)   bands (ev):

    -5.4125   2.7287   4.3186   5.2884

          k =-0.4167 0.4167-0.2500 (   794 PWs)   bands (ev):

    -4.3757   0.0851   3.8578   4.6783

          k = 0.4167-0.4167 0.5833 (   793 PWs)   bands (ev):

    -3.7241  -0.9953   3.9122   4.3174

          k = 0.2500-0.2500 0.4167 (   794 PWs)   bands (ev):

    -4.7651   0.8929   4.3812   4.3898

          k = 0.0833-0.0833 0.2500 (   799 PWs)   bands (ev):

    -5.6376   3.7040   4.8852   5.0435

          k =-0.0833 0.4167 0.0833 (   806 PWs)   bands (ev):

    -5.1820   2.5090   4.1603   4.1888

          k =-0.2500 0.5833-0.0833 (   795 PWs)   bands (ev):

    -4.3150   0.7332   2.9134   3.8158

          k = 0.5833-0.2500 0.7500 (   794 PWs)   bands (ev):

    -3.2664  -0.9136   2.3236   3.6040

          k = 0.4167-0.0833 0.5833 (   794 PWs)   bands (ev):

    -3.9426   0.0786   2.3019   4.0615

          k = 0.2500 0.0833 0.4167 (   800 PWs)   bands (ev):

    -4.9676   1.7238   3.5761   4.6891

          k =-0.0833 0.7500 0.0833 (   789 PWs)   bands (ev):

    -3.6342  -0.0883   2.8868   3.2030

          k = 0.7500-0.0833 0.9167 (   784 PWs)   bands (ev):

    -2.4995  -1.3739   2.0982   2.8243

          k = 0.5833 0.0833 0.7500 (   792 PWs)   bands (ev):

    -2.8649  -1.0301   1.6350   3.3418

          k = 0.4167 0.2500 0.5833 (   796 PWs)   bands (ev):

    -3.8418  -0.5366   3.1714   4.1519

          k =-0.0833-0.9167 0.0833 (   781 PWs)   bands (ev):

    -2.5810  -1.3790   2.6308   2.9963

          k =-0.2500-0.7500-0.0833 (   788 PWs)   bands (ev):

    -3.4769  -0.2975   2.3943   3.1492

          k =-0.0833-0.5833 0.0833 (   806 PWs)   bands (ev):

    -4.5092   1.2309   3.4011   3.6080

          k =-0.2500 0.2500 0.2500 (   797 PWs)   bands (ev):

    -5.1940   1.7994   4.9071   4.9071

          k =-0.4167 0.4167 0.0833 (   799 PWs)   bands (ev):

    -4.5476   0.8684   2.8776   4.7412

          k = 0.4167-0.4167 0.9167 (   790 PWs)   bands (ev):

    -3.4321  -0.5317   1.8321   3.9957

          k = 0.2500-0.2500 0.7500 (   788 PWs)   bands (ev):

    -3.3797  -0.6089   2.2786   3.5387

          k =-0.2500 0.5833 0.2500 (   799 PWs)   bands (ev):

    -4.1454   0.1026   3.2957   3.8950

          k = 0.5833-0.2500 1.0833 (   791 PWs)   bands (ev):

    -3.1948  -0.6597   1.9305   3.1522

          k = 0.4167-0.0833 0.9167 (   783 PWs)   bands (ev):

    -2.4060  -1.3815   1.7888   2.5233

          k =-0.2500-1.0833 0.2500 (   788 PWs)   bands (ev):

    -2.6083  -1.2779   1.6683   3.3527

          k =-0.4167 0.4167 0.4167 (   796 PWs)   bands (ev):

    -4.0684  -0.6147   4.5301   4.5301

          k = 0.4167-0.4167 1.2500 (   795 PWs)   bands (ev):

    -3.4982  -0.9200   2.7684   4.1152

     highest occupied level (ev):     5.4961

!    total energy              =     -93.45246181 Ry
     total all-electron energy =     -1160.144192 Ry
     estimated scf accuracy    <       0.00000038 Ry

     The total energy is the sum of the following terms:
     one-electron contribution =       5.30128209 Ry
     hartree contribution      =       1.15058774 Ry
     xc contribution           =     -12.24127247 Ry
     ewald contribution        =     -16.48502953 Ry
     one-center paw contrib.   =     -71.17802964 Ry

     convergence has been achieved in   5 iterations

     Writing all to output data dir ./silicon.save/
 
     init_run     :      0.07s CPU      0.11s WALL (       1 calls)
     electrons    :      0.52s CPU      0.61s WALL (       1 calls)

     Called by init_run:
     wfcinit      :      0.01s CPU      0.01s WALL (       1 calls)
     potinit      :      0.04s CPU      0.07s WALL (       1 calls)
     hinit0       :      0.01s CPU      0.02s WALL (       1 calls)

     Called by electrons:
     c_bands      :      0.18s CPU      0.21s WALL (       6 calls)
     sum_band     :      0.05s CPU      0.06s WALL (       6 calls)
     v_of_rho     :      0.00s CPU      0.01s WALL (       6 calls)
     newd         :      0.01s CPU      0.02s WALL (       6 calls)
     PAW_pot      :      0.31s CPU      0.38s WALL (       6 calls)
     mix_rho      :      0.00s CPU      0.00s WALL (       6 calls)

     Called by c_bands:
     init_us_2    :      0.01s CPU      0.01s WALL (     364 calls)
     init_us_2:cp :      0.01s CPU      0.01s WALL (     364 calls)
     cegterg      :      0.11s CPU      0.13s WALL (     168 calls)

     Called by *egterg:
     cdiaghg      :      0.01s CPU      0.01s WALL (     558 calls)
     h_psi        :      0.09s CPU      0.10s WALL (     614 calls)
     s_psi        :      0.00s CPU      0.00s WALL (     614 calls)
     g_psi        :      0.00s CPU      0.00s WALL (     418 calls)

     Called by h_psi:
     h_psi:calbec :      0.01s CPU      0.01s WALL (     614 calls)
     vloc_psi     :      0.08s CPU      0.08s WALL (     614 calls)
     add_vuspsi   :      0.00s CPU      0.00s WALL (     614 calls)

     General routines
     calbec       :      0.01s CPU      0.01s WALL (     782 calls)
     fft          :      0.00s CPU      0.00s WALL (      67 calls)
     ffts         :      0.00s CPU      0.00s WALL (       6 calls)
     fftw         :      0.08s CPU      0.09s WALL (    4994 calls)
 
     Parallel routines
 
     PWSCF        :      0.67s CPU      0.81s WALL

 
   This run was terminated on:  17:42:27  13Mar2026            

=------------------------------------------------------------------------------=
   JOB DONE.
=------------------------------------------------------------------------------=
