
     Program PWSCF v.7.1 starts on 13Mar2026 at 17:42:23 

     This program is part of the open-source Quantum ESPRESSO suite
     for quantum simulation of materials; please cite
         "P. Giannozzi et al., J. Phys.:Condens. Matter 21 395502 (2009);
         "P. Giannozzi et al., J. Phys.:Condens. Matter 29 465901 (2017);
         "P. Giannozzi et al., J. Chem. Phys. 152 154105 (2020);
          URL http://www.quantum-espresso.org", 
     in publications or presentations arising from this work. More details at
     http://www.quantum-espresso.org/quote

     Parallel version (MPI), running on     8 processors

     MPI processes distributed on     1 nodes
     11520 MiB available memory on the printing compute node when the environment starts
 
     Reading input from scf.in

     Current dimensions of program PWSCF are:
     Max number of different atomic species (ntypx) = 10
     Max number of k-points (npk) =  40000
     Max angular momentum in pseudopotentials (lmaxx) =  4
     file Si.pbe-n-kjpaw_psl.1.0.0.UPF: wavefunction(s)  3S 3P renormalized
 
     R & G space division:  proc/nbgrp/npool/nimage =       8
     Subspace diagonalization in iterative solution of the eigenvalue problem:
     a serial algorithm will be used

 
     Parallelization info
     --------------------
     sticks:   dense  smooth     PW     G-vecs:    dense   smooth      PW
     Min          54      54     18                  771      771     153
     Max          55      55     19                  775      775     156
     Sum         439     439    151                 6183     6183    1243
 
     Using Slab Decomposition
 


     bravais-lattice index     =            2
     lattice parameter (alat)  =      10.3531  a.u.
     unit-cell volume          =     277.4270 (a.u.)^3
     number of atoms/cell      =            2
     number of atomic types    =            1
     number of electrons       =         8.00
     number of Kohn-Sham states=            4
     kinetic-energy cutoff     =      30.0000  Ry
     charge density cutoff     =     120.0000  Ry
     scf convergence threshold =      1.0E-06
     mixing beta               =       0.6000
     number of iterations used =            8  plain     mixing
     Exchange-correlation= SLA  PW   PBX  PBC
                           (   1   4   3   4   0   0   0)

     celldm(1)=  10.353080  celldm(2)=   0.000000  celldm(3)=   0.000000
     celldm(4)=   0.000000  celldm(5)=   0.000000  celldm(6)=   0.000000

     crystal axes: (cart. coord. in units of alat)
               a(1) = (  -0.500000   0.000000   0.500000 )  
               a(2) = (   0.000000   0.500000   0.500000 )  
               a(3) = (  -0.500000   0.500000   0.000000 )  

     reciprocal axes: (cart. coord. in units 2 pi/alat)
               b(1) = ( -1.000000 -1.000000  1.000000 )  
               b(2) = (  1.000000  1.000000  1.000000 )  
               b(3) = ( -1.000000  1.000000 -1.000000 )  


     PseudoPot. # 1 for Si read from file:
     /home/karan/pseudos/Si.pbe-n-kjpaw_psl.1.0.0.UPF
     MD5 check sum: c39c59da582df4a0d9f10159256ea34e
     Pseudo is Projector augmented-wave + core cor, Zval =  4.0
     Generated using &quot;atomic&quot; code by A. Dal Corso  v.6.3
     Shape of augmentation charge: PSQ
     Using radial grid of 1141 points,  6 beta functions with: 
                l(1) =   0
                l(2) =   0
                l(3) =   1
                l(4) =   1
                l(5) =   2
                l(6) =   2
     Q(r) pseudized with 0 coefficients 


     atomic species   valence    mass     pseudopotential
        Si             4.00    28.08600     Si( 1.00)

     48 Sym. Ops., with inversion, found (24 have fractional translation)



   Cartesian axes

     site n.     atom                  positions (alat units)
         1           Si  tau(   1) = (   0.0000000   0.0000000   0.0000000  )
         2           Si  tau(   2) = (   0.2500000   0.2500000   0.2500000  )

     number of k points=    28
                       cart. coord. in units 2pi/alat
        k(    1) = (  -0.0833333   0.0833333   0.0833333), wk =   0.0185185
        k(    2) = (  -0.2500000   0.2500000  -0.0833333), wk =   0.0555556
        k(    3) = (  -0.4166667   0.4166667  -0.2500000), wk =   0.0555556
        k(    4) = (   0.4166667  -0.4166667   0.5833333), wk =   0.0555556
        k(    5) = (   0.2500000  -0.2500000   0.4166667), wk =   0.0555556
        k(    6) = (   0.0833333  -0.0833333   0.2500000), wk =   0.0555556
        k(    7) = (  -0.0833333   0.4166667   0.0833333), wk =   0.0555556
        k(    8) = (  -0.2500000   0.5833333  -0.0833333), wk =   0.1111111
        k(    9) = (   0.5833333  -0.2500000   0.7500000), wk =   0.1111111
        k(   10) = (   0.4166667  -0.0833333   0.5833333), wk =   0.1111111
        k(   11) = (   0.2500000   0.0833333   0.4166667), wk =   0.1111111
        k(   12) = (  -0.0833333   0.7500000   0.0833333), wk =   0.0555556
        k(   13) = (   0.7500000  -0.0833333   0.9166667), wk =   0.1111111
        k(   14) = (   0.5833333   0.0833333   0.7500000), wk =   0.1111111
        k(   15) = (   0.4166667   0.2500000   0.5833333), wk =   0.1111111
        k(   16) = (  -0.0833333  -0.9166667   0.0833333), wk =   0.0555556
        k(   17) = (  -0.2500000  -0.7500000  -0.0833333), wk =   0.1111111
        k(   18) = (  -0.0833333  -0.5833333   0.0833333), wk =   0.0555556
        k(   19) = (  -0.2500000   0.2500000   0.2500000), wk =   0.0185185
        k(   20) = (  -0.4166667   0.4166667   0.0833333), wk =   0.0555556
        k(   21) = (   0.4166667  -0.4166667   0.9166667), wk =   0.0555556
        k(   22) = (   0.2500000  -0.2500000   0.7500000), wk =   0.0555556
        k(   23) = (  -0.2500000   0.5833333   0.2500000), wk =   0.0555556
        k(   24) = (   0.5833333  -0.2500000   1.0833333), wk =   0.1111111
        k(   25) = (   0.4166667  -0.0833333   0.9166667), wk =   0.1111111
        k(   26) = (  -0.2500000  -1.0833333   0.2500000), wk =   0.0555556
        k(   27) = (  -0.4166667   0.4166667   0.4166667), wk =   0.0185185
        k(   28) = (   0.4166667  -0.4166667   1.2500000), wk =   0.0555556

     Dense  grid:     6183 G-vectors     FFT dimensions: (  32,  32,  32)

     Estimated max dynamical RAM per process >       3.92 MB

     Estimated total dynamical RAM >      31.39 MB

     Check: negative core charge=   -0.000004

     Initial potential from superposition of free atoms

     starting charge       7.9989, renormalised to       8.0000
     Starting wfcs are    8 randomized atomic wfcs
     Checking if some PAW data can be deallocated... 

     total cpu time spent up to now is        0.2 secs

     Self-consistent Calculation

     iteration #  1     ecut=    30.00 Ry     beta= 0.60
     Davidson diagonalization with overlap
     ethr =  1.00E-02,  avg # of iterations =  2.0

     Threshold (ethr) on eigenvalues was too large:
     Diagonalizing with lowered threshold

     Davidson diagonalization with overlap
     ethr =  5.94E-04,  avg # of iterations =  1.5

     total cpu time spent up to now is        0.3 secs

     total energy              =     -93.45179177 Ry
     estimated scf accuracy    <       0.05161436 Ry

     iteration #  2     ecut=    30.00 Ry     beta= 0.60
     Davidson diagonalization with overlap
     ethr =  6.45E-04,  avg # of iterations =  1.0

     total cpu time spent up to now is        0.4 secs

     total energy              =     -93.45242298 Ry
     estimated scf accuracy    <       0.00600245 Ry

     iteration #  3     ecut=    30.00 Ry     beta= 0.60
     Davidson diagonalization with overlap
     ethr =  7.50E-05,  avg # of iterations =  2.1

     total cpu time spent up to now is        0.6 secs

     total energy              =     -93.45330522 Ry
     estimated scf accuracy    <       0.00013539 Ry

     iteration #  4     ecut=    30.00 Ry     beta= 0.60
     Davidson diagonalization with overlap
     ethr =  1.69E-06,  avg # of iterations =  4.4

     total cpu time spent up to now is        0.7 secs

     total energy              =     -93.45341891 Ry
     estimated scf accuracy    <       0.00001472 Ry

     iteration #  5     ecut=    30.00 Ry     beta= 0.60
     Davidson diagonalization with overlap
     ethr =  1.84E-07,  avg # of iterations =  3.6

     total cpu time spent up to now is        0.8 secs

     End of self-consistent calculation

          k =-0.0833 0.0833 0.0833 (   752 PWs)   bands (ev):

    -5.7624   5.0726   5.7931   5.7931

          k =-0.2500 0.2500-0.0833 (   774 PWs)   bands (ev):

    -5.2952   3.0095   4.5809   5.5839

          k =-0.4167 0.4167-0.2500 (   771 PWs)   bands (ev):

    -4.2270   0.2969   4.1184   4.9580

          k = 0.4167-0.4167 0.5833 (   771 PWs)   bands (ev):

    -3.5487  -0.8202   4.1800   4.5854

          k = 0.2500-0.2500 0.4167 (   774 PWs)   bands (ev):

    -4.6291   1.1271   4.6468   4.6702

          k = 0.0833-0.0833 0.2500 (   781 PWs)   bands (ev):

    -5.5265   4.0063   5.1610   5.3362

          k =-0.0833 0.4167 0.0833 (   775 PWs)   bands (ev):

    -5.0587   2.8092   4.4243   4.4450

          k =-0.2500 0.5833-0.0833 (   775 PWs)   bands (ev):

    -4.1671   0.9961   3.1355   4.0639

          k = 0.5833-0.2500 0.7500 (   765 PWs)   bands (ev):

    -3.0800  -0.7108   2.5387   3.8432

          k = 0.4167-0.0833 0.5833 (   771 PWs)   bands (ev):

    -3.7822   0.3192   2.5053   4.3177

          k = 0.2500 0.0833 0.4167 (   778 PWs)   bands (ev):

    -4.8381   1.9934   3.8183   4.9693

          k =-0.0833 0.7500 0.0833 (   774 PWs)   bands (ev):

    -3.4689   0.1715   3.1038   3.4341

          k = 0.7500-0.0833 0.9167 (   764 PWs)   bands (ev):

    -2.2993  -1.1454   2.2839   3.0389

          k = 0.5833 0.0833 0.7500 (   767 PWs)   bands (ev):

    -2.6679  -0.8064   1.8088   3.5728

          k = 0.4167 0.2500 0.5833 (   773 PWs)   bands (ev):

    -3.6749  -0.3367   3.4176   4.4126

          k =-0.0833-0.9167 0.0833 (   765 PWs)   bands (ev):

    -2.3867  -1.1522   2.8399   3.2224

          k =-0.2500-0.7500-0.0833 (   767 PWs)   bands (ev):

    -3.3052  -0.0459   2.5948   3.3729

          k =-0.0833-0.5833 0.0833 (   775 PWs)   bands (ev):

    -4.3678   1.5177   3.6359   3.8492

          k =-0.2500 0.2500 0.2500 (   778 PWs)   bands (ev):

    -5.0705   2.0509   5.1893   5.1893

          k =-0.4167 0.4167 0.0833 (   779 PWs)   bands (ev):

    -4.4055   1.1191   3.0995   5.0215

          k = 0.4167-0.4167 0.9167 (   769 PWs)   bands (ev):

    -3.2539  -0.3045   2.0181   4.2519

          k = 0.2500-0.2500 0.7500 (   768 PWs)   bands (ev):

    -3.2017  -0.3829   2.4835   3.7802

          k =-0.2500 0.5833 0.2500 (   775 PWs)   bands (ev):

    -3.9910   0.3289   3.5451   4.1463

          k = 0.5833-0.2500 1.0833 (   764 PWs)   bands (ev):

    -3.0111  -0.4237   2.1175   3.3727

          k = 0.4167-0.0833 0.9167 (   759 PWs)   bands (ev):

    -2.1983  -1.1531   1.9627   2.7213

          k =-0.2500-1.0833 0.2500 (   762 PWs)   bands (ev):

    -2.4053  -1.0550   1.8389   3.5893

          k =-0.4167 0.4167 0.4167 (   769 PWs)   bands (ev):

    -3.9072  -0.4283   4.8057   4.8057

          k = 0.4167-0.4167 1.2500 (   771 PWs)   bands (ev):

    -3.3173  -0.7313   3.0014   4.3758

     highest occupied level (ev):     5.7931

!    total energy              =     -93.45342561 Ry
     total all-electron energy =     -1160.145156 Ry
     estimated scf accuracy    <       0.00000048 Ry

     The total energy is the sum of the following terms:
     one-electron contribution =       5.53180681 Ry
     hartree contribution      =       1.12368063 Ry
     xc contribution           =     -12.27655372 Ry
     ewald contribution        =     -16.64987983 Ry
     one-center paw contrib.   =     -71.18247950 Ry

     convergence has been achieved in   5 iterations

     Writing all to output data dir ./silicon.save/
 
     init_run     :      0.09s CPU      0.11s WALL (       1 calls)
     electrons    :      0.54s CPU      0.61s WALL (       1 calls)

     Called by init_run:
     wfcinit      :      0.01s CPU      0.01s WALL (       1 calls)
     potinit      :      0.06s CPU      0.07s WALL (       1 calls)
     hinit0       :      0.02s CPU      0.02s WALL (       1 calls)

     Called by electrons:
     c_bands      :      0.19s CPU      0.20s WALL (       6 calls)
     sum_band     :      0.05s CPU      0.06s WALL (       6 calls)
     v_of_rho     :      0.01s CPU      0.01s WALL (       6 calls)
     newd         :      0.01s CPU      0.02s WALL (       6 calls)
     PAW_pot      :      0.33s CPU      0.39s WALL (       6 calls)
     mix_rho      :      0.00s CPU      0.00s WALL (       6 calls)

     Called by c_bands:
     init_us_2    :      0.01s CPU      0.01s WALL (     364 calls)
     init_us_2:cp :      0.01s CPU      0.01s WALL (     364 calls)
     cegterg      :      0.12s CPU      0.12s WALL (     168 calls)

     Called by *egterg:
     cdiaghg      :      0.01s CPU      0.01s WALL (     549 calls)
     h_psi        :      0.09s CPU      0.10s WALL (     605 calls)
     s_psi        :      0.00s CPU      0.00s WALL (     605 calls)
     g_psi        :      0.00s CPU      0.00s WALL (     409 calls)

     Called by h_psi:
     h_psi:calbec :      0.01s CPU      0.01s WALL (     605 calls)
     vloc_psi     :      0.08s CPU      0.08s WALL (     605 calls)
     add_vuspsi   :      0.00s CPU      0.00s WALL (     605 calls)

     General routines
     calbec       :      0.01s CPU      0.01s WALL (     773 calls)
     fft          :      0.00s CPU      0.00s WALL (      67 calls)
     ffts         :      0.00s CPU      0.00s WALL (       6 calls)
     fftw         :      0.08s CPU      0.08s WALL (    5014 calls)
 
     Parallel routines
 
     PWSCF        :      0.71s CPU      0.81s WALL

 
   This run was terminated on:  17:42:24  13Mar2026            

=------------------------------------------------------------------------------=
   JOB DONE.
=------------------------------------------------------------------------------=
