
     Program PWSCF v.7.1 starts on 13Mar2026 at 17:42: 1 

     This program is part of the open-source Quantum ESPRESSO suite
     for quantum simulation of materials; please cite
         "P. Giannozzi et al., J. Phys.:Condens. Matter 21 395502 (2009);
         "P. Giannozzi et al., J. Phys.:Condens. Matter 29 465901 (2017);
         "P. Giannozzi et al., J. Chem. Phys. 152 154105 (2020);
          URL http://www.quantum-espresso.org", 
     in publications or presentations arising from this work. More details at
     http://www.quantum-espresso.org/quote

     Parallel version (MPI), running on     8 processors

     MPI processes distributed on     1 nodes
     11513 MiB available memory on the printing compute node when the environment starts
 
     Reading input from scf.in

     Current dimensions of program PWSCF are:
     Max number of different atomic species (ntypx) = 10
     Max number of k-points (npk) =  40000
     Max angular momentum in pseudopotentials (lmaxx) =  4
     file Si.pbe-n-kjpaw_psl.1.0.0.UPF: wavefunction(s)  3S 3P renormalized
 
     R & G space division:  proc/nbgrp/npool/nimage =       8
     Subspace diagonalization in iterative solution of the eigenvalue problem:
     a serial algorithm will be used

 
     Parallelization info
     --------------------
     sticks:   dense  smooth     PW     G-vecs:    dense   smooth      PW
     Min          45      45     15                  585      585     117
     Max          46      46     16                  587      587     121
     Sum         367     367    121                 4693     4693     941
 
     Using Slab Decomposition
 


     bravais-lattice index     =            2
     lattice parameter (alat)  =       9.4731  a.u.
     unit-cell volume          =     212.5260 (a.u.)^3
     number of atoms/cell      =            2
     number of atomic types    =            1
     number of electrons       =         8.00
     number of Kohn-Sham states=            4
     kinetic-energy cutoff     =      30.0000  Ry
     charge density cutoff     =     120.0000  Ry
     scf convergence threshold =      1.0E-06
     mixing beta               =       0.6000
     number of iterations used =            8  plain     mixing
     Exchange-correlation= SLA  PW   PBX  PBC
                           (   1   4   3   4   0   0   0)

     celldm(1)=   9.473068  celldm(2)=   0.000000  celldm(3)=   0.000000
     celldm(4)=   0.000000  celldm(5)=   0.000000  celldm(6)=   0.000000

     crystal axes: (cart. coord. in units of alat)
               a(1) = (  -0.500000   0.000000   0.500000 )  
               a(2) = (   0.000000   0.500000   0.500000 )  
               a(3) = (  -0.500000   0.500000   0.000000 )  

     reciprocal axes: (cart. coord. in units 2 pi/alat)
               b(1) = ( -1.000000 -1.000000  1.000000 )  
               b(2) = (  1.000000  1.000000  1.000000 )  
               b(3) = ( -1.000000  1.000000 -1.000000 )  


     PseudoPot. # 1 for Si read from file:
     /home/karan/pseudos/Si.pbe-n-kjpaw_psl.1.0.0.UPF
     MD5 check sum: c39c59da582df4a0d9f10159256ea34e
     Pseudo is Projector augmented-wave + core cor, Zval =  4.0
     Generated using &quot;atomic&quot; code by A. Dal Corso  v.6.3
     Shape of augmentation charge: PSQ
     Using radial grid of 1141 points,  6 beta functions with: 
                l(1) =   0
                l(2) =   0
                l(3) =   1
                l(4) =   1
                l(5) =   2
                l(6) =   2
     Q(r) pseudized with 0 coefficients 


     atomic species   valence    mass     pseudopotential
        Si             4.00    28.08600     Si( 1.00)

     48 Sym. Ops., with inversion, found (24 have fractional translation)



   Cartesian axes

     site n.     atom                  positions (alat units)
         1           Si  tau(   1) = (   0.0000000   0.0000000   0.0000000  )
         2           Si  tau(   2) = (   0.2500000   0.2500000   0.2500000  )

     number of k points=    28
                       cart. coord. in units 2pi/alat
        k(    1) = (  -0.0833333   0.0833333   0.0833333), wk =   0.0185185
        k(    2) = (  -0.2500000   0.2500000  -0.0833333), wk =   0.0555556
        k(    3) = (  -0.4166667   0.4166667  -0.2500000), wk =   0.0555556
        k(    4) = (   0.4166667  -0.4166667   0.5833333), wk =   0.0555556
        k(    5) = (   0.2500000  -0.2500000   0.4166667), wk =   0.0555556
        k(    6) = (   0.0833333  -0.0833333   0.2500000), wk =   0.0555556
        k(    7) = (  -0.0833333   0.4166667   0.0833333), wk =   0.0555556
        k(    8) = (  -0.2500000   0.5833333  -0.0833333), wk =   0.1111111
        k(    9) = (   0.5833333  -0.2500000   0.7500000), wk =   0.1111111
        k(   10) = (   0.4166667  -0.0833333   0.5833333), wk =   0.1111111
        k(   11) = (   0.2500000   0.0833333   0.4166667), wk =   0.1111111
        k(   12) = (  -0.0833333   0.7500000   0.0833333), wk =   0.0555556
        k(   13) = (   0.7500000  -0.0833333   0.9166667), wk =   0.1111111
        k(   14) = (   0.5833333   0.0833333   0.7500000), wk =   0.1111111
        k(   15) = (   0.4166667   0.2500000   0.5833333), wk =   0.1111111
        k(   16) = (  -0.0833333  -0.9166667   0.0833333), wk =   0.0555556
        k(   17) = (  -0.2500000  -0.7500000  -0.0833333), wk =   0.1111111
        k(   18) = (  -0.0833333  -0.5833333   0.0833333), wk =   0.0555556
        k(   19) = (  -0.2500000   0.2500000   0.2500000), wk =   0.0185185
        k(   20) = (  -0.4166667   0.4166667   0.0833333), wk =   0.0555556
        k(   21) = (   0.4166667  -0.4166667   0.9166667), wk =   0.0555556
        k(   22) = (   0.2500000  -0.2500000   0.7500000), wk =   0.0555556
        k(   23) = (  -0.2500000   0.5833333   0.2500000), wk =   0.0555556
        k(   24) = (   0.5833333  -0.2500000   1.0833333), wk =   0.1111111
        k(   25) = (   0.4166667  -0.0833333   0.9166667), wk =   0.1111111
        k(   26) = (  -0.2500000  -1.0833333   0.2500000), wk =   0.0555556
        k(   27) = (  -0.4166667   0.4166667   0.4166667), wk =   0.0185185
        k(   28) = (   0.4166667  -0.4166667   1.2500000), wk =   0.0555556

     Dense  grid:     4693 G-vectors     FFT dimensions: (  24,  24,  24)

     Estimated max dynamical RAM per process >       3.10 MB

     Estimated total dynamical RAM >      24.77 MB

     Check: negative core charge=   -0.000003

     Initial potential from superposition of free atoms

     starting charge       7.9989, renormalised to       8.0000
     Starting wfcs are    8 randomized atomic wfcs
     Checking if some PAW data can be deallocated... 

     total cpu time spent up to now is        0.2 secs

     Self-consistent Calculation

     iteration #  1     ecut=    30.00 Ry     beta= 0.60
     Davidson diagonalization with overlap
     ethr =  1.00E-02,  avg # of iterations =  2.0

     Threshold (ethr) on eigenvalues was too large:
     Diagonalizing with lowered threshold

     Davidson diagonalization with overlap
     ethr =  9.04E-04,  avg # of iterations =  1.1

     total cpu time spent up to now is        0.3 secs

     total energy              =     -93.38012808 Ry
     estimated scf accuracy    <       0.07774068 Ry

     iteration #  2     ecut=    30.00 Ry     beta= 0.60
     Davidson diagonalization with overlap
     ethr =  9.72E-04,  avg # of iterations =  1.0

     total cpu time spent up to now is        0.4 secs

     total energy              =     -93.38210185 Ry
     estimated scf accuracy    <       0.00721620 Ry

     iteration #  3     ecut=    30.00 Ry     beta= 0.60
     Davidson diagonalization with overlap
     ethr =  9.02E-05,  avg # of iterations =  2.4

     total cpu time spent up to now is        0.5 secs

     total energy              =     -93.38400564 Ry
     estimated scf accuracy    <       0.00025733 Ry

     iteration #  4     ecut=    30.00 Ry     beta= 0.60
     Davidson diagonalization with overlap
     ethr =  3.22E-06,  avg # of iterations =  4.1

     total cpu time spent up to now is        0.6 secs

     total energy              =     -93.38414246 Ry
     estimated scf accuracy    <       0.00004664 Ry

     iteration #  5     ecut=    30.00 Ry     beta= 0.60
     Davidson diagonalization with overlap
     ethr =  5.83E-07,  avg # of iterations =  2.7

     total cpu time spent up to now is        0.7 secs

     End of self-consistent calculation

          k =-0.0833 0.0833 0.0833 (   582 PWs)   bands (ev):

    -4.6775   8.0782   8.8310   8.8310

          k =-0.2500 0.2500-0.0833 (   580 PWs)   bands (ev):

    -4.0910   5.7410   7.2802   8.6270

          k =-0.4167 0.4167-0.2500 (   590 PWs)   bands (ev):

    -2.7121   2.3760   6.8076   7.8500

          k = 0.4167-0.4167 0.5833 (   591 PWs)   bands (ev):

    -1.7440   0.8787   6.9502   7.3565

          k = 0.2500-0.2500 0.4167 (   594 PWs)   bands (ev):

    -3.2414   3.4213   7.3802   7.5696

          k = 0.0833-0.0833 0.2500 (   582 PWs)   bands (ev):

    -4.3823   6.9313   7.9847   8.3596

          k =-0.0833 0.4167 0.0833 (   582 PWs)   bands (ev):

    -3.7960   5.7195   7.0761   7.1899

          k =-0.2500 0.5833-0.0833 (   592 PWs)   bands (ev):

    -2.6635   3.5769   5.4588   6.6194

          k = 0.5833-0.2500 0.7500 (   588 PWs)   bands (ev):

    -1.1673   1.2385   4.8207   6.2953

          k = 0.4167-0.0833 0.5833 (   592 PWs)   bands (ev):

    -2.1511   2.6731   4.6472   6.9534

          k = 0.2500 0.0833 0.4167 (   588 PWs)   bands (ev):

    -3.5138   4.6149   6.3302   7.8650

          k =-0.0833 0.7500 0.0833 (   593 PWs)   bands (ev):

    -1.7957   2.7811   5.3381   5.8263

          k = 0.7500-0.0833 0.9167 (   590 PWs)   bands (ev):

    -0.2725   1.1651   4.1871   5.2486

          k = 0.5833 0.0833 0.7500 (   589 PWs)   bands (ev):

    -0.6501   1.3988   3.6273   5.9471

          k = 0.4167 0.2500 0.5833 (   590 PWs)   bands (ev):

    -1.9732   1.6110   5.9841   7.0983

          k =-0.0833-0.9167 0.0833 (   603 PWs)   bands (ev):

    -0.4273   1.1306   4.9961   5.5672

          k =-0.2500-0.7500-0.0833 (   592 PWs)   bands (ev):

    -1.5649   2.4750   4.6746   5.6648

          k =-0.0833-0.5833 0.0833 (   593 PWs)   bands (ev):

    -2.9283   4.3652   6.0680   6.3365

          k =-0.2500 0.2500 0.2500 (   589 PWs)   bands (ev):

    -3.8051   4.5150   8.0927   8.0927

          k =-0.4167 0.4167 0.0833 (   593 PWs)   bands (ev):

    -2.9582   3.5632   5.4183   7.9148

          k = 0.4167-0.4167 0.9167 (   591 PWs)   bands (ev):

    -1.4388   1.9174   3.9813   6.8960

          k = 0.2500-0.2500 0.7500 (   598 PWs)   bands (ev):

    -1.3911   1.8295   4.6417   6.2753

          k =-0.2500 0.5833 0.2500 (   589 PWs)   bands (ev):

    -2.4200   2.5359   6.1573   6.7384

          k = 0.5833-0.2500 1.0833 (   586 PWs)   bands (ev):

    -1.1432   1.9143   4.0846   5.6241

          k = 0.4167-0.0833 0.9167 (   596 PWs)   bands (ev):

    -0.0769   1.1545   3.7489   4.7403

          k =-0.2500-1.0833 0.2500 (   591 PWs)   bands (ev):

    -0.3304   1.1726   3.5925   6.0357

          k =-0.4167 0.4167 0.4167 (   592 PWs)   bands (ev):

    -2.2608   1.4043   7.6585   7.6585

          k = 0.4167-0.4167 1.2500 (   586 PWs)   bands (ev):

    -1.4586   1.0857   5.4387   7.0662

     highest occupied level (ev):     8.8310

!    total energy              =     -93.38415382 Ry
     total all-electron energy =     -1160.075884 Ry
     estimated scf accuracy    <       0.00000065 Ry

     The total energy is the sum of the following terms:
     one-electron contribution =       7.78193918 Ry
     hartree contribution      =       0.89504818 Ry
     xc contribution           =     -12.62684429 Ry
     ewald contribution        =     -18.19658997 Ry
     one-center paw contrib.   =     -71.23770692 Ry

     convergence has been achieved in   5 iterations

     Writing all to output data dir ./silicon.save/
 
     init_run     :      0.08s CPU      0.09s WALL (       1 calls)
     electrons    :      0.46s CPU      0.52s WALL (       1 calls)

     Called by init_run:
     wfcinit      :      0.01s CPU      0.01s WALL (       1 calls)
     potinit      :      0.05s CPU      0.06s WALL (       1 calls)
     hinit0       :      0.02s CPU      0.02s WALL (       1 calls)

     Called by electrons:
     c_bands      :      0.15s CPU      0.16s WALL (       6 calls)
     sum_band     :      0.04s CPU      0.04s WALL (       6 calls)
     v_of_rho     :      0.00s CPU      0.00s WALL (       6 calls)
     newd         :      0.01s CPU      0.01s WALL (       6 calls)
     PAW_pot      :      0.29s CPU      0.36s WALL (       6 calls)
     mix_rho      :      0.00s CPU      0.00s WALL (       6 calls)

     Called by c_bands:
     init_us_2    :      0.01s CPU      0.01s WALL (     364 calls)
     init_us_2:cp :      0.00s CPU      0.01s WALL (     364 calls)
     cegterg      :      0.10s CPU      0.10s WALL (     168 calls)

     Called by *egterg:
     cdiaghg      :      0.01s CPU      0.01s WALL (     515 calls)
     h_psi        :      0.07s CPU      0.08s WALL (     571 calls)
     s_psi        :      0.00s CPU      0.00s WALL (     571 calls)
     g_psi        :      0.00s CPU      0.00s WALL (     375 calls)

     Called by h_psi:
     h_psi:calbec :      0.01s CPU      0.01s WALL (     571 calls)
     vloc_psi     :      0.06s CPU      0.06s WALL (     571 calls)
     add_vuspsi   :      0.00s CPU      0.00s WALL (     571 calls)

     General routines
     calbec       :      0.01s CPU      0.01s WALL (     739 calls)
     fft          :      0.00s CPU      0.00s WALL (      67 calls)
     ffts         :      0.00s CPU      0.00s WALL (       6 calls)
     fftw         :      0.06s CPU      0.07s WALL (    4900 calls)
 
     Parallel routines
 
     PWSCF        :      0.60s CPU      0.70s WALL

 
   This run was terminated on:  17:42: 1  13Mar2026            

=------------------------------------------------------------------------------=
   JOB DONE.
=------------------------------------------------------------------------------=
