
     Program PWSCF v.7.1 starts on 13Mar2026 at 17:42:37 

     This program is part of the open-source Quantum ESPRESSO suite
     for quantum simulation of materials; please cite
         "P. Giannozzi et al., J. Phys.:Condens. Matter 21 395502 (2009);
         "P. Giannozzi et al., J. Phys.:Condens. Matter 29 465901 (2017);
         "P. Giannozzi et al., J. Chem. Phys. 152 154105 (2020);
          URL http://www.quantum-espresso.org", 
     in publications or presentations arising from this work. More details at
     http://www.quantum-espresso.org/quote

     Parallel version (MPI), running on     8 processors

     MPI processes distributed on     1 nodes
     11523 MiB available memory on the printing compute node when the environment starts
 
     Reading input from scf.in

     Current dimensions of program PWSCF are:
     Max number of different atomic species (ntypx) = 10
     Max number of k-points (npk) =  40000
     Max angular momentum in pseudopotentials (lmaxx) =  4
     file Si.pbe-n-kjpaw_psl.1.0.0.UPF: wavefunction(s)  3S 3P renormalized
 
     R & G space division:  proc/nbgrp/npool/nimage =       8
     Subspace diagonalization in iterative solution of the eigenvalue problem:
     a serial algorithm will be used

 
     Parallelization info
     --------------------
     sticks:   dense  smooth     PW     G-vecs:    dense   smooth      PW
     Min          61      61     20                  889      889     170
     Max          63      63     21                  891      891     172
     Sum         499     499    163                 7119     7119    1363
 
     Using Slab Decomposition
 


     bravais-lattice index     =            2
     lattice parameter (alat)  =      10.8707  a.u.
     unit-cell volume          =     321.1564 (a.u.)^3
     number of atoms/cell      =            2
     number of atomic types    =            1
     number of electrons       =         8.00
     number of Kohn-Sham states=            4
     kinetic-energy cutoff     =      30.0000  Ry
     charge density cutoff     =     120.0000  Ry
     scf convergence threshold =      1.0E-06
     mixing beta               =       0.6000
     number of iterations used =            8  plain     mixing
     Exchange-correlation= SLA  PW   PBX  PBC
                           (   1   4   3   4   0   0   0)

     celldm(1)=  10.870734  celldm(2)=   0.000000  celldm(3)=   0.000000
     celldm(4)=   0.000000  celldm(5)=   0.000000  celldm(6)=   0.000000

     crystal axes: (cart. coord. in units of alat)
               a(1) = (  -0.500000   0.000000   0.500000 )  
               a(2) = (   0.000000   0.500000   0.500000 )  
               a(3) = (  -0.500000   0.500000   0.000000 )  

     reciprocal axes: (cart. coord. in units 2 pi/alat)
               b(1) = ( -1.000000 -1.000000  1.000000 )  
               b(2) = (  1.000000  1.000000  1.000000 )  
               b(3) = ( -1.000000  1.000000 -1.000000 )  


     PseudoPot. # 1 for Si read from file:
     /home/karan/pseudos/Si.pbe-n-kjpaw_psl.1.0.0.UPF
     MD5 check sum: c39c59da582df4a0d9f10159256ea34e
     Pseudo is Projector augmented-wave + core cor, Zval =  4.0
     Generated using &quot;atomic&quot; code by A. Dal Corso  v.6.3
     Shape of augmentation charge: PSQ
     Using radial grid of 1141 points,  6 beta functions with: 
                l(1) =   0
                l(2) =   0
                l(3) =   1
                l(4) =   1
                l(5) =   2
                l(6) =   2
     Q(r) pseudized with 0 coefficients 


     atomic species   valence    mass     pseudopotential
        Si             4.00    28.08600     Si( 1.00)

     48 Sym. Ops., with inversion, found (24 have fractional translation)



   Cartesian axes

     site n.     atom                  positions (alat units)
         1           Si  tau(   1) = (   0.0000000   0.0000000   0.0000000  )
         2           Si  tau(   2) = (   0.2500000   0.2500000   0.2500000  )

     number of k points=    28
                       cart. coord. in units 2pi/alat
        k(    1) = (  -0.0833333   0.0833333   0.0833333), wk =   0.0185185
        k(    2) = (  -0.2500000   0.2500000  -0.0833333), wk =   0.0555556
        k(    3) = (  -0.4166667   0.4166667  -0.2500000), wk =   0.0555556
        k(    4) = (   0.4166667  -0.4166667   0.5833333), wk =   0.0555556
        k(    5) = (   0.2500000  -0.2500000   0.4166667), wk =   0.0555556
        k(    6) = (   0.0833333  -0.0833333   0.2500000), wk =   0.0555556
        k(    7) = (  -0.0833333   0.4166667   0.0833333), wk =   0.0555556
        k(    8) = (  -0.2500000   0.5833333  -0.0833333), wk =   0.1111111
        k(    9) = (   0.5833333  -0.2500000   0.7500000), wk =   0.1111111
        k(   10) = (   0.4166667  -0.0833333   0.5833333), wk =   0.1111111
        k(   11) = (   0.2500000   0.0833333   0.4166667), wk =   0.1111111
        k(   12) = (  -0.0833333   0.7500000   0.0833333), wk =   0.0555556
        k(   13) = (   0.7500000  -0.0833333   0.9166667), wk =   0.1111111
        k(   14) = (   0.5833333   0.0833333   0.7500000), wk =   0.1111111
        k(   15) = (   0.4166667   0.2500000   0.5833333), wk =   0.1111111
        k(   16) = (  -0.0833333  -0.9166667   0.0833333), wk =   0.0555556
        k(   17) = (  -0.2500000  -0.7500000  -0.0833333), wk =   0.1111111
        k(   18) = (  -0.0833333  -0.5833333   0.0833333), wk =   0.0555556
        k(   19) = (  -0.2500000   0.2500000   0.2500000), wk =   0.0185185
        k(   20) = (  -0.4166667   0.4166667   0.0833333), wk =   0.0555556
        k(   21) = (   0.4166667  -0.4166667   0.9166667), wk =   0.0555556
        k(   22) = (   0.2500000  -0.2500000   0.7500000), wk =   0.0555556
        k(   23) = (  -0.2500000   0.5833333   0.2500000), wk =   0.0555556
        k(   24) = (   0.5833333  -0.2500000   1.0833333), wk =   0.1111111
        k(   25) = (   0.4166667  -0.0833333   0.9166667), wk =   0.1111111
        k(   26) = (  -0.2500000  -1.0833333   0.2500000), wk =   0.0555556
        k(   27) = (  -0.4166667   0.4166667   0.4166667), wk =   0.0185185
        k(   28) = (   0.4166667  -0.4166667   1.2500000), wk =   0.0555556

     Dense  grid:     7119 G-vectors     FFT dimensions: (  32,  32,  32)

     Estimated max dynamical RAM per process >       4.35 MB

     Estimated total dynamical RAM >      34.76 MB

     Check: negative core charge=   -0.000004

     Initial potential from superposition of free atoms

     starting charge       7.9989, renormalised to       8.0000
     Starting wfcs are    8 randomized atomic wfcs
     Checking if some PAW data can be deallocated... 

     total cpu time spent up to now is        0.2 secs

     Self-consistent Calculation

     iteration #  1     ecut=    30.00 Ry     beta= 0.60
     Davidson diagonalization with overlap
     ethr =  1.00E-02,  avg # of iterations =  2.0

     Threshold (ethr) on eigenvalues was too large:
     Diagonalizing with lowered threshold

     Davidson diagonalization with overlap
     ethr =  4.62E-04,  avg # of iterations =  2.0

     total cpu time spent up to now is        0.3 secs

     total energy              =     -93.43564824 Ry
     estimated scf accuracy    <       0.04037189 Ry

     iteration #  2     ecut=    30.00 Ry     beta= 0.60
     Davidson diagonalization with overlap
     ethr =  5.05E-04,  avg # of iterations =  1.0

     total cpu time spent up to now is        0.4 secs

     total energy              =     -93.43590146 Ry
     estimated scf accuracy    <       0.00529557 Ry

     iteration #  3     ecut=    30.00 Ry     beta= 0.60
     Davidson diagonalization with overlap
     ethr =  6.62E-05,  avg # of iterations =  1.6

     total cpu time spent up to now is        0.5 secs

     total energy              =     -93.43638494 Ry
     estimated scf accuracy    <       0.00007335 Ry

     iteration #  4     ecut=    30.00 Ry     beta= 0.60
     Davidson diagonalization with overlap
     ethr =  9.17E-07,  avg # of iterations =  5.7

     total cpu time spent up to now is        0.7 secs

     total energy              =     -93.43651295 Ry
     estimated scf accuracy    <       0.00000139 Ry

     iteration #  5     ecut=    30.00 Ry     beta= 0.60
     Davidson diagonalization with overlap
     ethr =  1.74E-08,  avg # of iterations =  5.6

     total cpu time spent up to now is        0.8 secs

     End of self-consistent calculation

          k =-0.0833 0.0833 0.0833 (   902 PWs)   bands (ev):

    -6.2513   3.6108   4.4120   4.4120

          k =-0.2500 0.2500-0.0833 (   905 PWs)   bands (ev):

    -5.8421   1.6647   3.3633   4.2121

          k =-0.4167 0.4167-0.2500 (   891 PWs)   bands (ev):

    -4.9217  -0.7130   2.9101   3.6615

          k = 0.4167-0.4167 0.5833 (   888 PWs)   bands (ev):

    -4.3649  -1.6590   2.9390   3.3426

          k = 0.2500-0.2500 0.4167 (   895 PWs)   bands (ev):

    -5.2644   0.0095   3.3705   3.4137

          k = 0.0833-0.0833 0.2500 (   902 PWs)   bands (ev):

    -6.0443   2.5523   3.8776   3.9802

          k =-0.0833 0.4167 0.0833 (   887 PWs)   bands (ev):

    -5.6341   1.3770   3.2051   3.2548

          k =-0.2500 0.5833-0.0833 (   889 PWs)   bands (ev):

    -4.8586  -0.2509   2.1097   2.9121

          k = 0.5833-0.2500 0.7500 (   888 PWs)   bands (ev):

    -3.9489  -1.6805   1.5512   2.7315

          k = 0.4167-0.0833 0.5833 (   887 PWs)   bands (ev):

    -4.5325  -0.8237   1.5676   3.1282

          k = 0.2500 0.0833 0.4167 (   892 PWs)   bands (ev):

    -5.4431   0.7065   2.6974   3.6704

          k =-0.0833 0.7500 0.0833 (   889 PWs)   bands (ev):

    -4.2431  -1.0501   2.0965   2.3627

          k = 0.7500-0.0833 0.9167 (   891 PWs)   bands (ev):

    -3.2366  -2.2168   1.4204   2.0423

          k = 0.5833 0.0833 0.7500 (   892 PWs)   bands (ev):

    -3.5866  -1.8637   1.0048   2.4997

          k = 0.4167 0.2500 0.5833 (   892 PWs)   bands (ev):

    -4.4539  -1.2921   2.2813   3.2031

          k =-0.0833-0.9167 0.0833 (   898 PWs)   bands (ev):

    -3.2980  -2.2170   1.8693   2.1747

          k =-0.2500-0.7500-0.0833 (   888 PWs)   bands (ev):

    -4.1092  -1.2294   1.6658   2.3331

          k =-0.0833-0.5833 0.0833 (   882 PWs)   bands (ev):

    -5.0291   0.1633   2.5476   2.7302

          k =-0.2500 0.2500 0.2500 (   896 PWs)   bands (ev):

    -5.6470   0.8502   3.8788   3.8788

          k =-0.4167 0.4167 0.0833 (   888 PWs)   bands (ev):

    -5.0695  -0.0752   2.0749   3.7213

          k = 0.4167-0.4167 0.9167 (   889 PWs)   bands (ev):

    -4.0861  -1.3827   1.1611   3.0635

          k = 0.2500-0.2500 0.7500 (   892 PWs)   bands (ev):

    -4.0340  -1.4557   1.5398   2.6603

          k =-0.2500 0.5833 0.2500 (   892 PWs)   bands (ev):

    -4.7131  -0.7506   2.3957   2.9799

          k = 0.5833-0.2500 1.0833 (   894 PWs)   bands (ev):

    -3.8695  -1.5375   1.2542   2.3463

          k = 0.4167-0.0833 0.9167 (   893 PWs)   bands (ev):

    -3.1682  -2.2239   1.1540   1.7995

          k =-0.2500-1.0833 0.2500 (   891 PWs)   bands (ev):

    -3.3528  -2.1042   1.0464   2.4930

          k =-0.4167 0.4167 0.4167 (   887 PWs)   bands (ev):

    -4.6594  -1.3172   3.5283   3.5283

          k = 0.4167-0.4167 1.2500 (   893 PWs)   bands (ev):

    -4.1597  -1.6365   1.9281   3.1673

     highest occupied level (ev):     4.4120

!    total energy              =     -93.43651516 Ry
     total all-electron energy =     -1160.128245 Ry
     estimated scf accuracy    <       0.00000003 Ry

     The total energy is the sum of the following terms:
     one-electron contribution =       4.43659022 Ry
     hartree contribution      =       1.25891378 Ry
     xc contribution           =     -12.11127344 Ry
     ewald contribution        =     -15.85702842 Ry
     one-center paw contrib.   =     -71.16371730 Ry

     convergence has been achieved in   5 iterations

     Writing all to output data dir ./silicon.save/
 
     init_run     :      0.10s CPU      0.10s WALL (       1 calls)
     electrons    :      0.55s CPU      0.61s WALL (       1 calls)

     Called by init_run:
     wfcinit      :      0.02s CPU      0.02s WALL (       1 calls)
     potinit      :      0.06s CPU      0.06s WALL (       1 calls)
     hinit0       :      0.02s CPU      0.02s WALL (       1 calls)

     Called by electrons:
     c_bands      :      0.22s CPU      0.23s WALL (       6 calls)
     sum_band     :      0.05s CPU      0.06s WALL (       6 calls)
     v_of_rho     :      0.01s CPU      0.01s WALL (       6 calls)
     newd         :      0.01s CPU      0.02s WALL (       6 calls)
     PAW_pot      :      0.31s CPU      0.35s WALL (       6 calls)
     mix_rho      :      0.00s CPU      0.00s WALL (       6 calls)

     Called by c_bands:
     init_us_2    :      0.01s CPU      0.01s WALL (     364 calls)
     init_us_2:cp :      0.01s CPU      0.01s WALL (     364 calls)
     cegterg      :      0.14s CPU      0.14s WALL (     168 calls)

     Called by *egterg:
     cdiaghg      :      0.01s CPU      0.01s WALL (     644 calls)
     h_psi        :      0.11s CPU      0.11s WALL (     700 calls)
     s_psi        :      0.00s CPU      0.00s WALL (     700 calls)
     g_psi        :      0.00s CPU      0.00s WALL (     504 calls)

     Called by h_psi:
     h_psi:calbec :      0.01s CPU      0.01s WALL (     700 calls)
     vloc_psi     :      0.09s CPU      0.10s WALL (     700 calls)
     add_vuspsi   :      0.00s CPU      0.00s WALL (     700 calls)

     General routines
     calbec       :      0.01s CPU      0.01s WALL (     868 calls)
     fft          :      0.00s CPU      0.01s WALL (      67 calls)
     ffts         :      0.00s CPU      0.00s WALL (       6 calls)
     fftw         :      0.09s CPU      0.10s WALL (    5368 calls)
 
     Parallel routines
 
     PWSCF        :      0.72s CPU      0.81s WALL

 
   This run was terminated on:  17:42:38  13Mar2026            

=------------------------------------------------------------------------------=
   JOB DONE.
=------------------------------------------------------------------------------=
