
     Program PWSCF v.7.1 starts on 13Mar2026 at 17:42: 2 

     This program is part of the open-source Quantum ESPRESSO suite
     for quantum simulation of materials; please cite
         "P. Giannozzi et al., J. Phys.:Condens. Matter 21 395502 (2009);
         "P. Giannozzi et al., J. Phys.:Condens. Matter 29 465901 (2017);
         "P. Giannozzi et al., J. Chem. Phys. 152 154105 (2020);
          URL http://www.quantum-espresso.org", 
     in publications or presentations arising from this work. More details at
     http://www.quantum-espresso.org/quote

     Parallel version (MPI), running on     8 processors

     MPI processes distributed on     1 nodes
     11519 MiB available memory on the printing compute node when the environment starts
 
     Reading input from scf.in

     Current dimensions of program PWSCF are:
     Max number of different atomic species (ntypx) = 10
     Max number of k-points (npk) =  40000
     Max angular momentum in pseudopotentials (lmaxx) =  4
     file Si.pbe-n-kjpaw_psl.1.0.0.UPF: wavefunction(s)  3S 3P renormalized
 
     R & G space division:  proc/nbgrp/npool/nimage =       8
     Subspace diagonalization in iterative solution of the eigenvalue problem:
     a serial algorithm will be used

 
     Parallelization info
     --------------------
     sticks:   dense  smooth     PW     G-vecs:    dense   smooth      PW
     Min          47      47     15                  601      601     117
     Max          49      49     16                  602      602     121
     Sum         379     379    121                 4813     4813     941
 
     Using Slab Decomposition
 


     bravais-lattice index     =            2
     lattice parameter (alat)  =       9.5248  a.u.
     unit-cell volume          =     216.0291 (a.u.)^3
     number of atoms/cell      =            2
     number of atomic types    =            1
     number of electrons       =         8.00
     number of Kohn-Sham states=            4
     kinetic-energy cutoff     =      30.0000  Ry
     charge density cutoff     =     120.0000  Ry
     scf convergence threshold =      1.0E-06
     mixing beta               =       0.6000
     number of iterations used =            8  plain     mixing
     Exchange-correlation= SLA  PW   PBX  PBC
                           (   1   4   3   4   0   0   0)

     celldm(1)=   9.524834  celldm(2)=   0.000000  celldm(3)=   0.000000
     celldm(4)=   0.000000  celldm(5)=   0.000000  celldm(6)=   0.000000

     crystal axes: (cart. coord. in units of alat)
               a(1) = (  -0.500000   0.000000   0.500000 )  
               a(2) = (   0.000000   0.500000   0.500000 )  
               a(3) = (  -0.500000   0.500000   0.000000 )  

     reciprocal axes: (cart. coord. in units 2 pi/alat)
               b(1) = ( -1.000000 -1.000000  1.000000 )  
               b(2) = (  1.000000  1.000000  1.000000 )  
               b(3) = ( -1.000000  1.000000 -1.000000 )  


     PseudoPot. # 1 for Si read from file:
     /home/karan/pseudos/Si.pbe-n-kjpaw_psl.1.0.0.UPF
     MD5 check sum: c39c59da582df4a0d9f10159256ea34e
     Pseudo is Projector augmented-wave + core cor, Zval =  4.0
     Generated using &quot;atomic&quot; code by A. Dal Corso  v.6.3
     Shape of augmentation charge: PSQ
     Using radial grid of 1141 points,  6 beta functions with: 
                l(1) =   0
                l(2) =   0
                l(3) =   1
                l(4) =   1
                l(5) =   2
                l(6) =   2
     Q(r) pseudized with 0 coefficients 


     atomic species   valence    mass     pseudopotential
        Si             4.00    28.08600     Si( 1.00)

     48 Sym. Ops., with inversion, found (24 have fractional translation)



   Cartesian axes

     site n.     atom                  positions (alat units)
         1           Si  tau(   1) = (   0.0000000   0.0000000   0.0000000  )
         2           Si  tau(   2) = (   0.2500000   0.2500000   0.2500000  )

     number of k points=    28
                       cart. coord. in units 2pi/alat
        k(    1) = (  -0.0833333   0.0833333   0.0833333), wk =   0.0185185
        k(    2) = (  -0.2500000   0.2500000  -0.0833333), wk =   0.0555556
        k(    3) = (  -0.4166667   0.4166667  -0.2500000), wk =   0.0555556
        k(    4) = (   0.4166667  -0.4166667   0.5833333), wk =   0.0555556
        k(    5) = (   0.2500000  -0.2500000   0.4166667), wk =   0.0555556
        k(    6) = (   0.0833333  -0.0833333   0.2500000), wk =   0.0555556
        k(    7) = (  -0.0833333   0.4166667   0.0833333), wk =   0.0555556
        k(    8) = (  -0.2500000   0.5833333  -0.0833333), wk =   0.1111111
        k(    9) = (   0.5833333  -0.2500000   0.7500000), wk =   0.1111111
        k(   10) = (   0.4166667  -0.0833333   0.5833333), wk =   0.1111111
        k(   11) = (   0.2500000   0.0833333   0.4166667), wk =   0.1111111
        k(   12) = (  -0.0833333   0.7500000   0.0833333), wk =   0.0555556
        k(   13) = (   0.7500000  -0.0833333   0.9166667), wk =   0.1111111
        k(   14) = (   0.5833333   0.0833333   0.7500000), wk =   0.1111111
        k(   15) = (   0.4166667   0.2500000   0.5833333), wk =   0.1111111
        k(   16) = (  -0.0833333  -0.9166667   0.0833333), wk =   0.0555556
        k(   17) = (  -0.2500000  -0.7500000  -0.0833333), wk =   0.1111111
        k(   18) = (  -0.0833333  -0.5833333   0.0833333), wk =   0.0555556
        k(   19) = (  -0.2500000   0.2500000   0.2500000), wk =   0.0185185
        k(   20) = (  -0.4166667   0.4166667   0.0833333), wk =   0.0555556
        k(   21) = (   0.4166667  -0.4166667   0.9166667), wk =   0.0555556
        k(   22) = (   0.2500000  -0.2500000   0.7500000), wk =   0.0555556
        k(   23) = (  -0.2500000   0.5833333   0.2500000), wk =   0.0555556
        k(   24) = (   0.5833333  -0.2500000   1.0833333), wk =   0.1111111
        k(   25) = (   0.4166667  -0.0833333   0.9166667), wk =   0.1111111
        k(   26) = (  -0.2500000  -1.0833333   0.2500000), wk =   0.0555556
        k(   27) = (  -0.4166667   0.4166667   0.4166667), wk =   0.0185185
        k(   28) = (   0.4166667  -0.4166667   1.2500000), wk =   0.0555556

     Dense  grid:     4813 G-vectors     FFT dimensions: (  24,  24,  24)

     Estimated max dynamical RAM per process >       3.15 MB

     Estimated total dynamical RAM >      25.18 MB

     Check: negative core charge=   -0.000003

     Initial potential from superposition of free atoms

     starting charge       7.9989, renormalised to       8.0000
     Starting wfcs are    8 randomized atomic wfcs
     Checking if some PAW data can be deallocated... 

     total cpu time spent up to now is        0.2 secs

     Self-consistent Calculation

     iteration #  1     ecut=    30.00 Ry     beta= 0.60
     Davidson diagonalization with overlap
     ethr =  1.00E-02,  avg # of iterations =  2.0

     Threshold (ethr) on eigenvalues was too large:
     Diagonalizing with lowered threshold

     Davidson diagonalization with overlap
     ethr =  8.83E-04,  avg # of iterations =  1.0

     total cpu time spent up to now is        0.3 secs

     total energy              =     -93.38939963 Ry
     estimated scf accuracy    <       0.07589427 Ry

     iteration #  2     ecut=    30.00 Ry     beta= 0.60
     Davidson diagonalization with overlap
     ethr =  9.49E-04,  avg # of iterations =  1.0

     total cpu time spent up to now is        0.4 secs

     total energy              =     -93.39124519 Ry
     estimated scf accuracy    <       0.00714505 Ry

     iteration #  3     ecut=    30.00 Ry     beta= 0.60
     Davidson diagonalization with overlap
     ethr =  8.93E-05,  avg # of iterations =  2.3

     total cpu time spent up to now is        0.5 secs

     total energy              =     -93.39307317 Ry
     estimated scf accuracy    <       0.00024830 Ry

     iteration #  4     ecut=    30.00 Ry     beta= 0.60
     Davidson diagonalization with overlap
     ethr =  3.10E-06,  avg # of iterations =  4.1

     total cpu time spent up to now is        0.6 secs

     total energy              =     -93.39320664 Ry
     estimated scf accuracy    <       0.00004577 Ry

     iteration #  5     ecut=    30.00 Ry     beta= 0.60
     Davidson diagonalization with overlap
     ethr =  5.72E-07,  avg # of iterations =  2.9

     total cpu time spent up to now is        0.7 secs

     End of self-consistent calculation

          k =-0.0833 0.0833 0.0833 (   585 PWs)   bands (ev):

    -4.7525   7.8765   8.6234   8.6234

          k =-0.2500 0.2500-0.0833 (   591 PWs)   bands (ev):

    -4.1738   5.5597   7.0949   8.4179

          k =-0.4167 0.4167-0.2500 (   604 PWs)   bands (ev):

    -2.8155   2.2370   6.6226   7.6505

          k = 0.4167-0.4167 0.5833 (   596 PWs)   bands (ev):

    -1.8682   0.7661   6.7592   7.1656

          k = 0.2500-0.2500 0.4167 (   599 PWs)   bands (ev):

    -3.3363   3.2682   7.1925   7.3697

          k = 0.0833-0.0833 0.2500 (   587 PWs)   bands (ev):

    -4.4611   6.7376   7.7916   8.1516

          k =-0.0833 0.4167 0.0833 (   590 PWs)   bands (ev):

    -3.8827   5.5277   6.8957   6.9971

          k =-0.2500 0.5833-0.0833 (   602 PWs)   bands (ev):

    -2.7661   3.4054   5.2969   6.4439

          k = 0.5833-0.2500 0.7500 (   598 PWs)   bands (ev):

    -1.2987   1.1108   4.6605   6.1275

          k = 0.4167-0.0833 0.5833 (   600 PWs)   bands (ev):

    -2.2623   2.5171   4.4973   6.7725

          k = 0.2500 0.0833 0.4167 (   598 PWs)   bands (ev):

    -3.6045   4.4413   6.1567   7.6655

          k =-0.0833 0.7500 0.0833 (   601 PWs)   bands (ev):

    -1.9094   2.6046   5.1846   5.6613

          k = 0.7500-0.0833 0.9167 (   606 PWs)   bands (ev):

    -0.4102   1.0081   4.0567   5.0968

          k = 0.5833 0.0833 0.7500 (   600 PWs)   bands (ev):

    -0.7885   1.2524   3.5003   5.7843

          k = 0.4167 0.2500 0.5833 (   597 PWs)   bands (ev):

    -2.0894   1.4815   5.8063   6.9138

          k =-0.0833-0.9167 0.0833 (   608 PWs)   bands (ev):

    -0.5601   0.9762   4.8478   5.4052

          k =-0.2500-0.7500-0.0833 (   598 PWs)   bands (ev):

    -1.6832   2.3049   4.5307   5.5081

          k =-0.0833-0.5833 0.0833 (   599 PWs)   bands (ev):

    -3.0266   4.1742   5.9000   6.1654

          k =-0.2500 0.2500 0.2500 (   595 PWs)   bands (ev):

    -3.8920   4.3505   7.8934   7.8934

          k =-0.4167 0.4167 0.0833 (   601 PWs)   bands (ev):

    -3.0571   3.4013   5.2572   7.7156

          k = 0.4167-0.4167 0.9167 (   599 PWs)   bands (ev):

    -1.5627   1.7704   3.8435   6.7141

          k = 0.2500-0.2500 0.7500 (   602 PWs)   bands (ev):

    -1.5145   1.6829   4.4907   6.1035

          k =-0.2500 0.5833 0.2500 (   599 PWs)   bands (ev):

    -2.5271   2.3893   5.9758   6.5601

          k = 0.5833-0.2500 1.0833 (   600 PWs)   bands (ev):

    -1.2706   1.7582   3.9467   5.4705

          k = 0.4167-0.0833 0.9167 (   604 PWs)   bands (ev):

    -0.2221   0.9978   3.6262   4.6026

          k =-0.2500-1.0833 0.2500 (   602 PWs)   bands (ev):

    -0.4724   1.0227   3.4719   5.8670

          k =-0.4167 0.4167 0.4167 (   601 PWs)   bands (ev):

    -2.3734   1.2815   7.4617   7.4617

          k = 0.4167-0.4167 1.2500 (   599 PWs)   bands (ev):

    -1.5863   0.9662   5.2695   6.8809

     highest occupied level (ev):     8.6234

!    total energy              =     -93.39321976 Ry
     total all-electron energy =     -1160.084950 Ry
     estimated scf accuracy    <       0.00000098 Ry

     The total energy is the sum of the following terms:
     one-electron contribution =       7.63287946 Ry
     hartree contribution      =       0.90849254 Ry
     xc contribution           =     -12.60346145 Ry
     ewald contribution        =     -18.09769545 Ry
     one-center paw contrib.   =     -71.23343485 Ry

     convergence has been achieved in   5 iterations

     Writing all to output data dir ./silicon.save/
 
     init_run     :      0.07s CPU      0.09s WALL (       1 calls)
     electrons    :      0.47s CPU      0.52s WALL (       1 calls)

     Called by init_run:
     wfcinit      :      0.01s CPU      0.01s WALL (       1 calls)
     potinit      :      0.05s CPU      0.06s WALL (       1 calls)
     hinit0       :      0.01s CPU      0.02s WALL (       1 calls)

     Called by electrons:
     c_bands      :      0.14s CPU      0.16s WALL (       6 calls)
     sum_band     :      0.05s CPU      0.05s WALL (       6 calls)
     v_of_rho     :      0.00s CPU      0.00s WALL (       6 calls)
     newd         :      0.01s CPU      0.01s WALL (       6 calls)
     PAW_pot      :      0.31s CPU      0.35s WALL (       6 calls)
     mix_rho      :      0.00s CPU      0.00s WALL (       6 calls)

     Called by c_bands:
     init_us_2    :      0.01s CPU      0.01s WALL (     364 calls)
     init_us_2:cp :      0.00s CPU      0.01s WALL (     364 calls)
     cegterg      :      0.09s CPU      0.10s WALL (     168 calls)

     Called by *egterg:
     cdiaghg      :      0.01s CPU      0.01s WALL (     514 calls)
     h_psi        :      0.07s CPU      0.08s WALL (     570 calls)
     s_psi        :      0.00s CPU      0.00s WALL (     570 calls)
     g_psi        :      0.00s CPU      0.00s WALL (     374 calls)

     Called by h_psi:
     h_psi:calbec :      0.01s CPU      0.01s WALL (     570 calls)
     vloc_psi     :      0.06s CPU      0.06s WALL (     570 calls)
     add_vuspsi   :      0.00s CPU      0.00s WALL (     570 calls)

     General routines
     calbec       :      0.01s CPU      0.01s WALL (     738 calls)
     fft          :      0.00s CPU      0.00s WALL (      67 calls)
     ffts         :      0.00s CPU      0.00s WALL (       6 calls)
     fftw         :      0.06s CPU      0.07s WALL (    4926 calls)
 
     Parallel routines
 
     PWSCF        :      0.62s CPU      0.70s WALL

 
   This run was terminated on:  17:42: 3  13Mar2026            

=------------------------------------------------------------------------------=
   JOB DONE.
=------------------------------------------------------------------------------=
