
     Program CP v.7.1 starts on 13Mar2026 at 19:19:13 

     This program is part of the open-source Quantum ESPRESSO suite
     for quantum simulation of materials; please cite
         "P. Giannozzi et al., J. Phys.:Condens. Matter 21 395502 (2009);
         "P. Giannozzi et al., J. Phys.:Condens. Matter 29 465901 (2017);
         "P. Giannozzi et al., J. Chem. Phys. 152 154105 (2020);
          URL http://www.quantum-espresso.org", 
     in publications or presentations arising from this work. More details at
     http://www.quantum-espresso.org/quote

     Parallel version (MPI), running on     6 processors

     MPI processes distributed on     1 nodes
     R & G space division:  proc/nbgrp/npool/nimage =       6
     13984 MiB available memory on the printing compute node when the environment starts
 
     Waiting for input...
     Reading input from standard input
Warning: card K_POINTS (AUTOMATIC) ignored
Warning: card   6 6 6 1 1 1 ignored

   Job Title: MD Simulation


   Atomic Pseudopotentials Parameters
   ----------------------------------

   Reading pseudopotential for specie #  1 from file :
   /home/karan/pseudos/Si.pbe-nl-rrkjus_psl.1.0.0.UPF
   file type is xml


   Main Simulation Parameters (from input)
   ---------------------------------------
   Restart Mode       =      -1   from_scratch   
   Number of MD Steps =    4000
   Print out every           10 MD Steps
   Reads from unit    =      50
   Writes to unit     =      50
   MD Simulation time step            =       3.00
   Electronic fictitious mass (emass) =     200.00
   emass cut-off                      =       2.50

   Simulation Cell Parameters (from input)
   external pressure       =            0.00 [KBar]
   wmass (calculated)      =         7780.97 [AU]
   ibrav =    2
   alat  =    10.35000000
   a1    =    -5.17500000    0.00000000    5.17500000
   a2    =     0.00000000    5.17500000    5.17500000
   a3    =    -5.17500000    5.17500000    0.00000000
 
   b1    =    -0.09661836   -0.09661836    0.09661836
   b2    =     0.09661836    0.09661836    0.09661836
   b3    =    -0.09661836    0.09661836   -0.09661836
   omega =     277.17946875

   Energy Cut-offs
   ---------------
   Ecutwfc =   30.0 Ry,      Ecutrho =  200.0 Ry,      Ecuts =  120.0 Ry
   Gcutwfc =    9.0     ,    Gcutrho =   23.3          Gcuts =   18.0
   NOTA BENE: refg, mmx =   0.050000  4800
   Eigenvalues calculated without the kinetic term contribution
   Orthog. with lagrange multipliers : eps =   0.10E-10,  max = 300
   verlet algorithm for electron dynamics
   with friction frice =  0.0500 , grease =  1.0000
   Electron dynamics : the temperature is not controlled
   initial random displacement of el. coordinates with  amplitude=  0.020000

   Electronic states
   -----------------
   Number of Electrons=     8, of States =    10
   Occupation numbers :
   2.00 2.00 2.00 2.00 0.00 0.00 0.00 0.00 0.00 0.00


   Exchange and correlations functionals
   -------------------------------------
     Exchange-correlation= PBE
                           (   1   4   3   4   0   0   0)


   Ions Simulation Parameters
   --------------------------
   Ions are not allowed to move
   Ionic position (from input)
   sorted by specie, and converted to real a.u. coordinates
   Species   1 atoms =    2 mass =     51196.73 (a.u.),        28.09 (amu) rcmax =   0.50 (a.u.)
        0.000000     0.000000     0.000000
        2.587500     2.587500     2.587500
   Ionic position read from input file


   Cell Dynamics Parameters (from STDIN)
   -------------------------------------
   internal stress tensor calculated
   Starting cell generated from CELLDM
   Constant VOLUME Molecular dynamics
   cell parameters are not allowed to move

   Verbosity: iverbosity =  0



   Simulation dimensions initialization
   ------------------------------------

   unit vectors of full simulation cell
   in real space:                         in reciprocal space (units 2pi/alat):
   1    -5.1750    0.0000    5.1750             -1.0000   -1.0000    1.0000
   2     0.0000    5.1750    5.1750              1.0000    1.0000    1.0000
   3    -5.1750    5.1750    0.0000             -1.0000    1.0000   -1.0000
 
     Parallelization info
     --------------------
     sticks:   dense  smooth     PW     G-vecs:    dense   smooth      PW
     Min         123      72     17                 2219     1028     123
     Max         126      74     20                 2224     1036     128
     Sum         745     439    109                13323     6183     749
 
     Using Slab Decomposition
 
 
   Real Mesh
   ---------
   Global Dimensions   Local  Dimensions   Processor Grid
   .X.   .Y.   .Z.     .X.   .Y.   .Z.     .X.   .Y.   .Z.
    36    36    36      36    36     6       1     1     6
   Array leading dimensions ( nr1x, nr2x, nr3x )   =     36    36    36
   Local number of cell to store the grid ( nrxx ) =       7776
   Number of x-y planes for each processors: 
  |  36,   6  |  36,   6  |  36,   6  |  36,   6  |  36,   6
  |  36,   6  |
   Using Slab Decomposition
 
   Smooth Real Mesh
   ----------------
   Global Dimensions   Local  Dimensions   Processor Grid
   .X.   .Y.   .Z.     .X.   .Y.   .Z.     .X.   .Y.   .Z.
    25    25    25      25    25     5       1     1     6
   Array leading dimensions ( nr1x, nr2x, nr3x )   =     25    25    25
   Local number of cell to store the grid ( nrxx ) =       3125
   Number of x-y planes for each processors: 
  |  25,   5  |  25,   4  |  25,   4  |  25,   4  |  25,   4
  |  25,   4  |
   Using Slab Decomposition
 
   Small Box Real Mesh
   -------------------
   Global Dimensions   Local  Dimensions   Processor Grid
   .X.   .Y.   .Z.     .X.   .Y.   .Z.     .X.   .Y.   .Z.
    30    30    30      30    30    30       1     1     1
   Array leading dimensions ( nr1x, nr2x, nr3x )   =     30    30    30
   Local number of cell to store the grid ( nrxx ) =      27000
 
   unit vectors of box grid cell
   in real space:                         in reciprocal space:
      -4.3125    0.0000    4.3125             -1.0000   -1.0000    1.0000
       0.0000    4.3125    4.3125              1.0000    1.0000    1.0000
      -4.3125    4.3125    0.0000             -1.0000    1.0000   -1.0000
 
   Reciprocal Space Mesh
   ---------------------
   Large Mesh
     Global(ngm_g)    MinLocal       MaxLocal      Average
           6662           1110           1112        1110.33
   Smooth Mesh
     Global(ngms_g)   MinLocal       MaxLocal      Average
           3092            514            518         515.33
   Wave function Mesh
     Global(ngw_g)    MinLocal       MaxLocal      Average
            375             62             64          62.50

   Small box Mesh
   ngb =         3864 not distributed to processors


   System geometry initialization
   ------------------------------
   ibrav =    2       cell parameters read from input file
 
   unit vectors of box grid cell
   in real space:                         in reciprocal space:
      -4.3125    0.0000    4.3125             -0.7071   -0.7071    0.7071
       0.0000    4.3125    4.3125              0.7071    0.7071    0.7071
      -4.3125    4.3125    0.0000             -0.7071    0.7071   -0.7071
     Subspace diagonalization in iterative solution of the eigenvalue problem:
     one sub-group per band group will be used
     scalapack distributed-memory algorithm (size of sub-group:  2*  2 procs)


   Matrix Multiplication Performances
   ortho mmul, time for parallel driver      =   0.00002 with    4 procs

   Constraints matrixes will be distributed block like on
   ortho sub-group =    2*   2 procs



   Pseudopotentials initialization
   -------------------------------
is, nh(is), ngb, kkbeta, lmaxq =     1    8 3864  829    3
 
                        qqq 
  -0.0772  -0.0666   0.0000   0.0000
  -0.0666  -0.0419   0.0000   0.0000
   0.0000   0.0000  -0.0095  -0.0249
   0.0000   0.0000  -0.0249  -0.0561
 


   Common initialization

   Specie:     1
   1  indv=  1   ang. mom=  0
   2  indv=  2   ang. mom=  0
   3  indv=  3   ang. mom=  1
   4  indv=  3   ang. mom=  1
   5  indv=  3   ang. mom=  1
   6  indv=  4   ang. mom=  1
   7  indv=  4   ang. mom=  1
   8  indv=  4   ang. mom=  1
 
                        dion 
   0.3872   0.3449   0.0000   0.0000
   0.3449   0.7963   0.0000   0.0000
   0.0000   0.0000   0.1675   0.1356
   0.0000   0.0000   0.1356   0.3372

   Cell parameters from input file are used in electron mass preconditioning
   init_tpiba2=    0.36853525
 
   Short Legend and Physical Units in the Output
   ---------------------------------------------
   NFI    [int]          - step index
   EKINC  [HARTREE A.U.] - kinetic energy of the fictitious electronic dynamics
   TEMPH  [K]            - Temperature of the fictitious cell dynamics
   TEMP   [K]            - Ionic temperature
   ETOT   [HARTREE A.U.] - Scf total energy (Kohn-Sham hamiltonian)
   ENTHAL [HARTREE A.U.] - Enthalpy ( ETOT + P * V )
   ECONS  [HARTREE A.U.] - Enthalpy + kinetic energy of ions and cell
   ECONT  [HARTREE A.U.] - Constant of motion for the CP lagrangian
 


   Wave Initialization: random initial wave-functions
   Occupation number from init
   nbnd =    10
    2.00 2.00 2.00 2.00 0.00 0.00 0.00 0.00 0.00 0.00

   formf: eself=    25.53231
   formf:     vps(g=0)=  -0.0125303     rhops(g=0)=  -0.0144311
   formf:     vps(g=0)=  -0.0111885     rhops(g=0)=  -0.0134676
   formf:     vps(g=0)=  -0.0111885     rhops(g=0)=  -0.0134676
   formf:     vps(g=0)=  -0.0107528     rhops(g=0)=  -0.0131609
   formf:     vps(g=0)=  -0.0090756     rhops(g=0)=  -0.0120025
   formf: sum_g vps(g)=   0.6384321 sum_g rhops(g)=  -2.8755295
   Delta V(G=0):   0.022668Ry,    0.616836eV

   from rhoofr: total integrated electronic density
   in g-space =      8.000000   in r-space =     8.000000
     Total Electronic Pressure (GPa)      719.24708      0
 
  nfi     ekinc              temph  tempp     etot                 enthal               econs                econt              vnhh    xnhh0   vnhp    xnhp0
      1    0.884149216964513    0.0    0.00       1.316645468273       1.316645468273       1.316645468273       2.200794685238   0.0000   0.0000   0.0000   0.0000
      2    2.505819091632500    0.0    0.00      -0.732131033098      -0.732131033098      -0.732131033098       1.773688058534   0.0000   0.0000   0.0000   0.0000
      3    4.150987918408711    0.0    0.00      -3.160769784991      -3.160769784991      -3.160769784991       0.990218133418   0.0000   0.0000   0.0000   0.0000
      4    4.944537971062325    0.0    0.00      -4.927140668469      -4.927140668469      -4.927140668469       0.017397302593   0.0000   0.0000   0.0000   0.0000
      5    4.600780390977834    0.0    0.00      -5.499129198032      -5.499129198032      -5.499129198032      -0.898348807054   0.0000   0.0000   0.0000   0.0000
      6    3.575721851450750    0.0    0.00      -5.207917221292      -5.207917221292      -5.207917221292      -1.632195369841   0.0000   0.0000   0.0000   0.0000
      7    2.578768144312514    0.0    0.00      -4.764794667964      -4.764794667964      -4.764794667964      -2.186026523651   0.0000   0.0000   0.0000   0.0000
      8    2.056812948995557    0.0    0.00      -4.684006279149      -4.684006279149      -4.684006279149      -2.627193330154   0.0000   0.0000   0.0000   0.0000
      9    2.071277940210909    0.0    0.00      -5.124792048182      -5.124792048182      -5.124792048182      -3.053514107971   0.0000   0.0000   0.0000   0.0000
     10    2.396369900166940    0.0    0.00      -5.938352299487      -5.938352299487      -5.938352299487      -3.541982399320   0.0000   0.0000   0.0000   0.0000
     11    2.667759259310642    0.0    0.00      -6.762410760283      -6.762410760283      -6.762410760283      -4.094651500973   0.0000   0.0000   0.0000   0.0000
     12    2.597923336254969    0.0    0.00      -7.230388915521      -7.230388915521      -7.230388915521      -4.632465579266   0.0000   0.0000   0.0000   0.0000
     13    2.193288662655957    0.0    0.00      -7.269364223807      -7.269364223807      -7.269364223807      -5.076075561151   0.0000   0.0000   0.0000   0.0000
     14    1.735000398253298    0.0    0.00      -7.161174686588      -7.161174686588      -7.161174686588      -5.426174288335   0.0000   0.0000   0.0000   0.0000
     15    1.487623981486928    0.0    0.00      -7.226465222231      -7.226465222231      -7.226465222231      -5.738841240744   0.0000   0.0000   0.0000   0.0000
     16    1.466481713129351    0.0    0.00      -7.522383038747      -7.522383038747      -7.522383038747      -6.055901325618   0.0000   0.0000   0.0000   0.0000
     17    1.496492118715405    0.0    0.00      -7.871647360299      -7.871647360299      -7.871647360299      -6.375155241583   0.0000   0.0000   0.0000   0.0000
     18    1.426635110616327    0.0    0.00      -8.097987213584      -8.097987213584      -8.097987213584      -6.671352102968   0.0000   0.0000   0.0000   0.0000
     19    1.247244278528650    0.0    0.00      -8.176022337057      -8.176022337057      -8.176022337057      -6.928778058528   0.0000   0.0000   0.0000   0.0000
     20    1.038885484539197    0.0    0.00      -8.186078827912      -8.186078827912      -8.186078827912      -7.147193343372   0.0000   0.0000   0.0000   0.0000
     21    0.875033880778442    0.0    0.00      -8.208407980632      -8.208407980632      -8.208407980632      -7.333374099854   0.0000   0.0000   0.0000   0.0000
     22    0.783213923952149    0.0    0.00      -8.281521447999      -8.281521447999      -8.281521447999      -7.498307524046   0.0000   0.0000   0.0000   0.0000
     23    0.751868460039927    0.0    0.00      -8.407315429487      -8.407315429487      -8.407315429487      -7.655446969447   0.0000   0.0000   0.0000   0.0000
     24    0.741625813134974    0.0    0.00      -8.553584185134      -8.553584185134      -8.553584185134      -7.811958371999   0.0000   0.0000   0.0000   0.0000
     25    0.704842267461976    0.0    0.00      -8.666313677120      -8.666313677120      -8.666313677120      -7.961471409658   0.0000   0.0000   0.0000   0.0000
     26    0.622190607261399    0.0    0.00      -8.713374548193      -8.713374548193      -8.713374548193      -8.091183940932   0.0000   0.0000   0.0000   0.0000
     27    0.523131128314567    0.0    0.00      -8.720731343233      -8.720731343233      -8.720731343233      -8.197600214919   0.0000   0.0000   0.0000   0.0000
     28    0.457160219417285    0.0    0.00      -8.747981739757      -8.747981739757      -8.747981739757      -8.290821520339   0.0000   0.0000   0.0000   0.0000
     29    0.443098589235719    0.0    0.00      -8.826515939249      -8.826515939249      -8.826515939249      -8.383417350013   0.0000   0.0000   0.0000   0.0000
     30    0.454220404212007    0.0    0.00      -8.933172625252      -8.933172625252      -8.933172625252      -8.478952221040   0.0000   0.0000   0.0000   0.0000
     31    0.451164085894822    0.0    0.00      -9.023502789468      -9.023502789468      -9.023502789468      -8.572338703573   0.0000   0.0000   0.0000   0.0000
     32    0.419047795413223    0.0    0.00      -9.077090500695      -9.077090500695      -9.077090500695      -8.658042705282   0.0000   0.0000   0.0000   0.0000
     33    0.370396718809918    0.0    0.00      -9.104934359767      -9.104934359767      -9.104934359767      -8.734537640957   0.0000   0.0000   0.0000   0.0000
     34    0.323420727583588    0.0    0.00      -9.126060225753      -9.126060225753      -9.126060225753      -8.802639498169   0.0000   0.0000   0.0000   0.0000
     35    0.286754482941095    0.0    0.00      -9.150171910447      -9.150171910447      -9.150171910447      -8.863417427506   0.0000   0.0000   0.0000   0.0000
     36    0.260240446961116    0.0    0.00      -9.178516381041      -9.178516381041      -9.178516381041      -8.918275934080   0.0000   0.0000   0.0000   0.0000
     37    0.240054290850287    0.0    0.00      -9.208946433997      -9.208946433997      -9.208946433997      -8.968892143147   0.0000   0.0000   0.0000   0.0000
     38    0.220665263744413    0.0    0.00      -9.236467131054      -9.236467131054      -9.236467131054      -9.015801867310   0.0000   0.0000   0.0000   0.0000
     39    0.197252378037719    0.0    0.00      -9.255054563450      -9.255054563450      -9.255054563450      -9.057802185412   0.0000   0.0000   0.0000   0.0000
     40    0.170110664606752    0.0    0.00      -9.263781580451      -9.263781580451      -9.263781580451      -9.093670915844   0.0000   0.0000   0.0000   0.0000
     41    0.145184260340001    0.0    0.00      -9.269284156771      -9.269284156771      -9.269284156771      -9.124099896431   0.0000   0.0000   0.0000   0.0000
     42    0.128033314328010    0.0    0.00      -9.279242543205      -9.279242543205      -9.279242543205      -9.151209228877   0.0000   0.0000   0.0000   0.0000
     43    0.118077461122083    0.0    0.00      -9.294562824159      -9.294562824159      -9.294562824159      -9.176485363037   0.0000   0.0000   0.0000   0.0000
     44    0.110088861811492    0.0    0.00      -9.309981423369      -9.309981423369      -9.309981423369      -9.199892561557   0.0000   0.0000   0.0000   0.0000
     45    0.100279209934924    0.0    0.00      -9.321134309607      -9.321134309607      -9.321134309607      -9.220855099672   0.0000   0.0000   0.0000   0.0000
     46    0.089238118406350    0.0    0.00      -9.328628591245      -9.328628591245      -9.328628591245      -9.239390472839   0.0000   0.0000   0.0000   0.0000
     47    0.079429955833234    0.0    0.00      -9.335485859042      -9.335485859042      -9.335485859042      -9.256055903209   0.0000   0.0000   0.0000   0.0000
     48    0.071807927594864    0.0    0.00      -9.343079445342      -9.343079445342      -9.343079445342      -9.271271517747   0.0000   0.0000   0.0000   0.0000
     49    0.065523576466133    0.0    0.00      -9.350636601430      -9.350636601430      -9.350636601430      -9.285113024964   0.0000   0.0000   0.0000   0.0000
     50    0.059667505667848    0.0    0.00      -9.357280010401      -9.357280010401      -9.357280010401      -9.297612504733   0.0000   0.0000   0.0000   0.0000
     51    0.054154044737557    0.0    0.00      -9.363082280751      -9.363082280751      -9.363082280751      -9.308928236014   0.0000   0.0000   0.0000   0.0000
     52    0.049263403711697    0.0    0.00      -9.368486643156      -9.368486643156      -9.368486643156      -9.319223239444   0.0000   0.0000   0.0000   0.0000
     53    0.045198295387455    0.0    0.00      -9.373809949035      -9.373809949035      -9.373809949035      -9.328611653648   0.0000   0.0000   0.0000   0.0000
     54    0.042135706373270    0.0    0.00      -9.379417284887      -9.379417284887      -9.379417284887      -9.337281578514   0.0000   0.0000   0.0000   0.0000
     55    0.040140291887652    0.0    0.00      -9.385659444574      -9.385659444574      -9.385659444574      -9.345519152686   0.0000   0.0000   0.0000   0.0000
     56    0.038820109364301    0.0    0.00      -9.392342047496      -9.392342047496      -9.392342047496      -9.353521938132   0.0000   0.0000   0.0000   0.0000
     57    0.037377005250263    0.0    0.00      -9.398626897174      -9.398626897174      -9.398626897174      -9.361249891923   0.0000   0.0000   0.0000   0.0000
     58    0.035225484028934    0.0    0.00      -9.403745553101      -9.403745553101      -9.403745553101      -9.368520069072   0.0000   0.0000   0.0000   0.0000
     59    0.032465864275794    0.0    0.00      -9.407681127948      -9.407681127948      -9.407681127948      -9.375215263672   0.0000   0.0000   0.0000   0.0000
     60    0.029646699400645    0.0    0.00      -9.411007916046      -9.411007916046      -9.411007916046      -9.381361216645   0.0000   0.0000   0.0000   0.0000
     61    0.027163086482478    0.0    0.00      -9.414201062978      -9.414201062978      -9.414201062978      -9.387037976495   0.0000   0.0000   0.0000   0.0000
     62    0.024992264897603    0.0    0.00      -9.417273486463      -9.417273486463      -9.417273486463      -9.392281221565   0.0000   0.0000   0.0000   0.0000
     63    0.022930176146086    0.0    0.00      -9.420010600282      -9.420010600282      -9.420010600282      -9.397080424136   0.0000   0.0000   0.0000   0.0000
     64    0.020921102308995    0.0    0.00      -9.422358344310      -9.422358344310      -9.422358344310      -9.401437242001   0.0000   0.0000   0.0000   0.0000
     65    0.019114955686248    0.0    0.00      -9.424517576227      -9.424517576227      -9.424517576227      -9.405402620540   0.0000   0.0000   0.0000   0.0000
     66    0.017684387255811    0.0    0.00      -9.426748017697      -9.426748017697      -9.426748017697      -9.409063630441   0.0000   0.0000   0.0000   0.0000
     67    0.016652278877293    0.0    0.00      -9.429156362302      -9.429156362302      -9.429156362302      -9.412504083425   0.0000   0.0000   0.0000   0.0000
     68    0.015886613993060    0.0    0.00      -9.431661638005      -9.431661638005      -9.431661638005      -9.415775024012   0.0000   0.0000   0.0000   0.0000
     69    0.015224345227889    0.0    0.00      -9.434118936666      -9.434118936666      -9.434118936666      -9.418894591438   0.0000   0.0000   0.0000   0.0000
     70    0.014588375113885    0.0    0.00      -9.436457965698      -9.436457965698      -9.436457965698      -9.421869590585   0.0000   0.0000   0.0000   0.0000
     71    0.014006578193644    0.0    0.00      -9.438721431199      -9.438721431199      -9.438721431199      -9.424714853005   0.0000   0.0000   0.0000   0.0000
     72    0.013551752846014    0.0    0.00      -9.441008849679      -9.441008849679      -9.441008849679      -9.427457096833   0.0000   0.0000   0.0000   0.0000
     73    0.013279417231559    0.0    0.00      -9.443410303089      -9.443410303089      -9.443410303089      -9.430130885857   0.0000   0.0000   0.0000   0.0000
     74    0.013203596680349    0.0    0.00      -9.445979115984      -9.445979115984      -9.445979115984      -9.432775519304   0.0000   0.0000   0.0000   0.0000
     75    0.013295282073418    0.0    0.00      -9.448723848259      -9.448723848259      -9.448723848259      -9.435428566186   0.0000   0.0000   0.0000   0.0000
     76    0.013491668280556    0.0    0.00      -9.451605574956      -9.451605574956      -9.451605574956      -9.438113906675   0.0000   0.0000   0.0000   0.0000
     77    0.013729572324679    0.0    0.00      -9.454567265654      -9.454567265654      -9.454567265654      -9.440837693329   0.0000   0.0000   0.0000   0.0000
     78    0.013991660329456    0.0    0.00      -9.457593932844      -9.457593932844      -9.457593932844      -9.443602272514   0.0000   0.0000   0.0000   0.0000
     79    0.014313547911799    0.0    0.00      -9.460736591546      -9.460736591546      -9.460736591546      -9.446423043634   0.0000   0.0000   0.0000   0.0000
     80    0.014731839894086    0.0    0.00      -9.464057436333      -9.464057436333      -9.464057436333      -9.449325596439   0.0000   0.0000   0.0000   0.0000
     81    0.015233353137609    0.0    0.00      -9.467560578848      -9.467560578848      -9.467560578848      -9.452327225711   0.0000   0.0000   0.0000   0.0000
     82    0.015772234123579    0.0    0.00      -9.471201864234      -9.471201864234      -9.471201864234      -9.455429630111   0.0000   0.0000   0.0000   0.0000
     83    0.016330716263719    0.0    0.00      -9.474963767381      -9.474963767381      -9.474963767381      -9.458633051117   0.0000   0.0000   0.0000   0.0000
     84    0.016939278443818    0.0    0.00      -9.478890279263      -9.478890279263      -9.478890279263      -9.461951000819   0.0000   0.0000   0.0000   0.0000
     85    0.017631406449574    0.0    0.00      -9.483036919576      -9.483036919576      -9.483036919576      -9.465405513127   0.0000   0.0000   0.0000   0.0000
     86    0.018398112012573    0.0    0.00      -9.487410062830      -9.487410062830      -9.487410062830      -9.469011950817   0.0000   0.0000   0.0000   0.0000
     87    0.019198590586064    0.0    0.00      -9.491973191850      -9.491973191850      -9.491973191850      -9.472774601263   0.0000   0.0000   0.0000   0.0000
     88    0.020000134423745    0.0    0.00      -9.496694688105      -9.496694688105      -9.496694688105      -9.476694553681   0.0000   0.0000   0.0000   0.0000
     89    0.020790338372866    0.0    0.00      -9.501564340417      -9.501564340417      -9.501564340417      -9.480774002044   0.0000   0.0000   0.0000   0.0000
     90    0.021559092093597    0.0    0.00      -9.506570420653      -9.506570420653      -9.506570420653      -9.485011328559   0.0000   0.0000   0.0000   0.0000
     91    0.022290287849432    0.0    0.00      -9.511688360491      -9.511688360491      -9.511688360491      -9.489398072642   0.0000   0.0000   0.0000   0.0000
     92    0.022973836421761    0.0    0.00      -9.516898215619      -9.516898215619      -9.516898215619      -9.493924379197   0.0000   0.0000   0.0000   0.0000
     93    0.023608706054647    0.0    0.00      -9.522192486348      -9.522192486348      -9.522192486348      -9.498583780293   0.0000   0.0000   0.0000   0.0000
     94    0.024184957292294    0.0    0.00      -9.527553438087      -9.527553438087      -9.527553438087      -9.503368480795   0.0000   0.0000   0.0000   0.0000
     95    0.024672642324617    0.0    0.00      -9.532934266734      -9.532934266734      -9.532934266734      -9.508261624410   0.0000   0.0000   0.0000   0.0000
     96    0.025038260384629    0.0    0.00      -9.538276181550      -9.538276181550      -9.538276181550      -9.513237921166   0.0000   0.0000   0.0000   0.0000
     97    0.025266958499306    0.0    0.00      -9.543538129763      -9.543538129763      -9.543538129763      -9.518271171264   0.0000   0.0000   0.0000   0.0000
     98    0.025359909476822    0.0    0.00      -9.548697451289      -9.548697451289      -9.548697451289      -9.523337541812   0.0000   0.0000   0.0000   0.0000
     99    0.025313916848725    0.0    0.00      -9.553725123672      -9.553725123672      -9.553725123672      -9.528411206823   0.0000   0.0000   0.0000   0.0000

 * Physical Quantities at step:   100

   from rhoofr: total integrated electronic density
   in g-space =      8.000000   in r-space =     8.000000
     Total Electronic Pressure (GPa)       41.01517    100
     Pressure of Nuclei (GPa)             0.00000    100
     Pressure Total (GPa)            41.52985    100


                total energy =       -9.55857510714 Hartree a.u.
              kinetic energy =        4.09440 Hartree a.u.
        electrostatic energy =      -10.48057 Hartree a.u.
                         esr =        0.00000 Hartree a.u.
                       eself =       25.53231 Hartree a.u.
      pseudopotential energy =       -0.21435 Hartree a.u.
  n-l pseudopotential energy =        2.09062 Hartree a.u.
 exchange-correlation energy =       -5.04868 Hartree a.u.
           average potential =        0.00000 Hartree a.u.



   Eigenvalues (eV), kp =   1 , spin =  1

   -5.75   -0.07   -0.00   -0.00   -0.00   -0.00    0.00    6.11    6.23    6.56
 
 
   CELL_PARAMETERS
   -5.17500000    0.00000000   -5.17500000
    0.00000000    5.17500000    5.17500000
    5.17500000    5.17500000    0.00000000

   System Density [g/cm^3] :              2.2709396404


   System Volume [A.U.^3] :            277.1794687500


   Center of mass square displacement (a.u.):   0.000000

   Total stress (GPa)
       43.59138403        14.69151462       -11.49264634
       14.69151462        45.31405455       -11.10244527
      -11.49260648       -11.10241653        35.68412281
   ATOMIC_POSITIONS
   Si      0.00000000000000E+00     0.00000000000000E+00     0.00000000000000E+00
   Si      0.25875000000000E+01     0.25875000000000E+01     0.25875000000000E+01
 
   ATOMIC_VELOCITIES
   Si      0.00000000000000E+00     0.00000000000000E+00     0.00000000000000E+00
   Si      0.00000000000000E+00     0.00000000000000E+00     0.00000000000000E+00
 
   Forces acting on atoms (au):
   Si     -0.93052521943480E-02    -0.12334605841036E-01     0.56230288938497E-02
   Si     -0.33068595768885E-01    -0.38361241773713E-01     0.46745640179681E-01
 


   Partial temperatures (for each ionic specie) 
   Species  Temp (K)   Mean Square Displacement (a.u.)
        1   0.00E+00     0.0000E+00
 
  nfi     ekinc              temph  tempp     etot                 enthal               econs                econt              vnhh    xnhh0   vnhp    xnhp0
    100    0.025114506224794    0.0    0.00      -9.558575107143      -9.558575107143      -9.558575107143      -9.533460600918   0.0000   0.0000   0.0000   0.0000

   writing restart file (with schema): ./tmp/silicon_50.save/
     restart      :      0.00s CPU      0.01s WALL (       1 calls)
    101    0.024750168179740    0.0    0.00      -9.563201570899      -9.563201570899      -9.563201570899      -9.538451402719   0.0000   0.0000   0.0000   0.0000
    102    0.024224352347603    0.0    0.00      -9.567576014400      -9.567576014400      -9.567576014400      -9.543351662053   0.0000   0.0000   0.0000   0.0000
    103    0.023549268377880    0.0    0.00      -9.571681576350      -9.571681576350      -9.571681576350      -9.548132307973   0.0000   0.0000   0.0000   0.0000
    104    0.022734385436141    0.0    0.00      -9.575498768830      -9.575498768830      -9.575498768830      -9.552764383394   0.0000   0.0000   0.0000   0.0000
    105    0.021787180936433    0.0    0.00      -9.579006113860      -9.579006113860      -9.579006113860      -9.557218932924   0.0000   0.0000   0.0000   0.0000
    106    0.020721931410034    0.0    0.00      -9.582192239408      -9.582192239408      -9.582192239408      -9.561470307998   0.0000   0.0000   0.0000   0.0000
    107    0.019561258689392    0.0    0.00      -9.585059508742      -9.585059508742      -9.585059508742      -9.565498250053   0.0000   0.0000   0.0000   0.0000
    108    0.018329152135640    0.0    0.00      -9.587615890188      -9.587615890188      -9.587615890188      -9.569286738053   0.0000   0.0000   0.0000   0.0000
    109    0.017047331737780    0.0    0.00      -9.589870209728      -9.589870209728      -9.589870209728      -9.572822877991   0.0000   0.0000   0.0000   0.0000
    110    0.015738999205899    0.0    0.00      -9.591837406608      -9.591837406608      -9.591837406608      -9.576098407402   0.0000   0.0000   0.0000   0.0000
    111    0.014430833883934    0.0    0.00      -9.593542387176      -9.593542387176      -9.593542387176      -9.579111553292   0.0000   0.0000   0.0000   0.0000
    112    0.013147354535452    0.0    0.00      -9.595013451159      -9.595013451159      -9.595013451159      -9.581866096624   0.0000   0.0000   0.0000   0.0000
    113    0.011904739767523    0.0    0.00      -9.596273350230      -9.596273350230      -9.596273350230      -9.584368610462   0.0000   0.0000   0.0000   0.0000
    114    0.010712523584053    0.0    0.00      -9.597339744998      -9.597339744998      -9.597339744998      -9.586627221414   0.0000   0.0000   0.0000   0.0000
    115    0.009579991743949    0.0    0.00      -9.598232548142      -9.598232548142      -9.598232548142      -9.588652556398   0.0000   0.0000   0.0000   0.0000
    116    0.008518103598963    0.0    0.00      -9.598976485925      -9.598976485925      -9.598976485925      -9.590458382326   0.0000   0.0000   0.0000   0.0000
    117    0.007535413455747    0.0    0.00      -9.599595818429      -9.599595818429      -9.599595818429      -9.592060404973   0.0000   0.0000   0.0000   0.0000
    118    0.006634848000633    0.0    0.00      -9.600109462027      -9.600109462027      -9.600109462027      -9.593474614026   0.0000   0.0000   0.0000   0.0000
    119    0.005815449106089    0.0    0.00      -9.600532322940      -9.600532322940      -9.600532322940      -9.594716873834   0.0000   0.0000   0.0000   0.0000
    120    0.005075481877584    0.0    0.00      -9.600878759301      -9.600878759301      -9.600878759301      -9.595803277424   0.0000   0.0000   0.0000   0.0000
    121    0.004412603912456    0.0    0.00      -9.601162444312      -9.601162444312      -9.601162444312      -9.596749840399   0.0000   0.0000   0.0000   0.0000
    122    0.003822424056793    0.0    0.00      -9.601393982948      -9.601393982948      -9.601393982948      -9.597571558891   0.0000   0.0000   0.0000   0.0000
    123    0.003298976997403    0.0    0.00      -9.601581000946      -9.601581000946      -9.601581000946      -9.598282023949   0.0000   0.0000   0.0000   0.0000
    124    0.002836797633988    0.0    0.00      -9.601730691747      -9.601730691747      -9.601730691747      -9.598893894113   0.0000   0.0000   0.0000   0.0000
    125    0.002431490915338    0.0    0.00      -9.601850737127      -9.601850737127      -9.601850737127      -9.599419246211   0.0000   0.0000   0.0000   0.0000
    126    0.002078243290265    0.0    0.00      -9.601947425897      -9.601947425897      -9.601947425897      -9.599869182607   0.0000   0.0000   0.0000   0.0000
    127    0.001770963717269    0.0    0.00      -9.602024284842      -9.602024284842      -9.602024284842      -9.600253321125   0.0000   0.0000   0.0000   0.0000
    128    0.001503547846782    0.0    0.00      -9.602083489546      -9.602083489546      -9.602083489546      -9.600579941699   0.0000   0.0000   0.0000   0.0000
    129    0.001271425512371    0.0    0.00      -9.602127974097      -9.602127974097      -9.602127974097      -9.600856548584   0.0000   0.0000   0.0000   0.0000
    130    0.001071308602077    0.0    0.00      -9.602161397883      -9.602161397883      -9.602161397883      -9.601090089281   0.0000   0.0000   0.0000   0.0000
    131    0.000899837045358    0.0    0.00      -9.602186549699      -9.602186549699      -9.602186549699      -9.601286712653   0.0000   0.0000   0.0000   0.0000
    132    0.000753159429953    0.0    0.00      -9.602204776394      -9.602204776394      -9.602204776394      -9.601451616964   0.0000   0.0000   0.0000   0.0000
    133    0.000627746923834    0.0    0.00      -9.602217025382      -9.602217025382      -9.602217025382      -9.601589278458   0.0000   0.0000   0.0000   0.0000
    134    0.000520984865943    0.0    0.00      -9.602224720761      -9.602224720761      -9.602224720761      -9.601703735895   0.0000   0.0000   0.0000   0.0000
    135    0.000430779692079    0.0    0.00      -9.602229381610      -9.602229381610      -9.602229381610      -9.601798601918   0.0000   0.0000   0.0000   0.0000
    136    0.000355008534635    0.0    0.00      -9.602231958665      -9.602231958665      -9.602231958665      -9.601876950131   0.0000   0.0000   0.0000   0.0000
    137    0.000291633716772    0.0    0.00      -9.602233010492      -9.602233010492      -9.602233010492      -9.601941376775   0.0000   0.0000   0.0000   0.0000
    138    0.000239087056757    0.0    0.00      -9.602233286704      -9.602233286704      -9.602233286704      -9.601994199647   0.0000   0.0000   0.0000   0.0000
    139    0.000196184582784    0.0    0.00      -9.602233720560      -9.602233720560      -9.602233720560      -9.602037535978   0.0000   0.0000   0.0000   0.0000
    140    0.000161708590427    0.0    0.00      -9.602234922108      -9.602234922108      -9.602234922108      -9.602073213517   0.0000   0.0000   0.0000   0.0000
    141    0.000134322211526    0.0    0.00      -9.602237044873      -9.602237044873      -9.602237044873      -9.602102722662   0.0000   0.0000   0.0000   0.0000
    142    0.000112896360160    0.0    0.00      -9.602240218450      -9.602240218450      -9.602240218450      -9.602127322090   0.0000   0.0000   0.0000   0.0000
    143    0.000096687232733    0.0    0.00      -9.602244849029      -9.602244849029      -9.602244849029      -9.602148161796   0.0000   0.0000   0.0000   0.0000
    144    0.000085087808944    0.0    0.00      -9.602251364615      -9.602251364615      -9.602251364615      -9.602166276806   0.0000   0.0000   0.0000   0.0000
    145    0.000077335128585    0.0    0.00      -9.602259842939      -9.602259842939      -9.602259842939      -9.602182507810   0.0000   0.0000   0.0000   0.0000
    146    0.000072567285181    0.0    0.00      -9.602270058856      -9.602270058856      -9.602270058856      -9.602197491571   0.0000   0.0000   0.0000   0.0000
    147    0.000070079615605    0.0    0.00      -9.602281814349      -9.602281814349      -9.602281814349      -9.602211734734   0.0000   0.0000   0.0000   0.0000
    148    0.000069398877727    0.0    0.00      -9.602295066654      -9.602295066654      -9.602295066654      -9.602225667776   0.0000   0.0000   0.0000   0.0000
    149    0.000070131051531    0.0    0.00      -9.602309762607      -9.602309762607      -9.602309762607      -9.602239631556   0.0000   0.0000   0.0000   0.0000
    150    0.000071846261121    0.0    0.00      -9.602325701731      -9.602325701731      -9.602325701731      -9.602253855470   0.0000   0.0000   0.0000   0.0000
    151    0.000074128035679    0.0    0.00      -9.602342606733      -9.602342606733      -9.602342606733      -9.602268478697   0.0000   0.0000   0.0000   0.0000
    152    0.000076645368326    0.0    0.00      -9.602360230078      -9.602360230078      -9.602360230078      -9.602283584710   0.0000   0.0000   0.0000   0.0000
    153    0.000079123708999    0.0    0.00      -9.602378326907      -9.602378326907      -9.602378326907      -9.602299203198   0.0000   0.0000   0.0000   0.0000
    154    0.000081291304906    0.0    0.00      -9.602396585038      -9.602396585038      -9.602396585038      -9.602315293733   0.0000   0.0000   0.0000   0.0000
    155    0.000082910265461    0.0    0.00      -9.602414664868      -9.602414664868      -9.602414664868      -9.602331754603   0.0000   0.0000   0.0000   0.0000
    156    0.000083847831001    0.0    0.00      -9.602432306126      -9.602432306126      -9.602432306126      -9.602348458295   0.0000   0.0000   0.0000   0.0000
    157    0.000084074745717    0.0    0.00      -9.602449350486      -9.602449350486      -9.602449350486      -9.602365275740   0.0000   0.0000   0.0000   0.0000
    158    0.000083590900908    0.0    0.00      -9.602465663247      -9.602465663247      -9.602465663247      -9.602382072346   0.0000   0.0000   0.0000   0.0000
    159    0.000082379632138    0.0    0.00      -9.602481078757      -9.602481078757      -9.602481078757      -9.602398699124   0.0000   0.0000   0.0000   0.0000
    160    0.000080435831470    0.0    0.00      -9.602495437352      -9.602495437352      -9.602495437352      -9.602415001521   0.0000   0.0000   0.0000   0.0000
    161    0.000077806579644    0.0    0.00      -9.602508643888      -9.602508643888      -9.602508643888      -9.602430837308   0.0000   0.0000   0.0000   0.0000
    162    0.000074583237261    0.0    0.00      -9.602520667147      -9.602520667147      -9.602520667147      -9.602446083910   0.0000   0.0000   0.0000   0.0000
    163    0.000070864833107    0.0    0.00      -9.602531499361      -9.602531499361      -9.602531499361      -9.602460634528   0.0000   0.0000   0.0000   0.0000
    164    0.000066743488794    0.0    0.00      -9.602541140323      -9.602541140323      -9.602541140323      -9.602474396834   0.0000   0.0000   0.0000   0.0000
    165    0.000062316003299    0.0    0.00      -9.602549614538      -9.602549614538      -9.602549614538      -9.602487298535   0.0000   0.0000   0.0000   0.0000
    166    0.000057688744242    0.0    0.00      -9.602556980016      -9.602556980016      -9.602556980016      -9.602499291272   0.0000   0.0000   0.0000   0.0000
    167    0.000052964400351    0.0    0.00      -9.602563312046      -9.602563312046      -9.602563312046      -9.602510347645   0.0000   0.0000   0.0000   0.0000
    168    0.000048230825988    0.0    0.00      -9.602568687495      -9.602568687495      -9.602568687495      -9.602520456669   0.0000   0.0000   0.0000   0.0000
    169    0.000043564681053    0.0    0.00      -9.602573187898      -9.602573187898      -9.602573187898      -9.602529623217   0.0000   0.0000   0.0000   0.0000
    170    0.000039037361468    0.0    0.00      -9.602576906311      -9.602576906311      -9.602576906311      -9.602537868949   0.0000   0.0000   0.0000   0.0000
    171    0.000034710448299    0.0    0.00      -9.602579940246      -9.602579940246      -9.602579940246      -9.602545229798   0.0000   0.0000   0.0000   0.0000
    172    0.000030627704002    0.0    0.00      -9.602582378433      -9.602582378433      -9.602582378433      -9.602551750729   0.0000   0.0000   0.0000   0.0000
    173    0.000026816299962    0.0    0.00      -9.602584298590      -9.602584298590      -9.602584298590      -9.602557482290   0.0000   0.0000   0.0000   0.0000
    174    0.000023295419331    0.0    0.00      -9.602585775575      -9.602585775575      -9.602585775575      -9.602562480155   0.0000   0.0000   0.0000   0.0000
    175    0.000020080688365    0.0    0.00      -9.602586885501      -9.602586885501      -9.602586885501      -9.602566804813   0.0000   0.0000   0.0000   0.0000
    176    0.000017180910278    0.0    0.00      -9.602587700288      -9.602587700288      -9.602587700288      -9.602570519378   0.0000   0.0000   0.0000   0.0000
    177    0.000014594324924    0.0    0.00      -9.602588281114      -9.602588281114      -9.602588281114      -9.602573686789   0.0000   0.0000   0.0000   0.0000
    178    0.000012310105095    0.0    0.00      -9.602588678273      -9.602588678273      -9.602588678273      -9.602576368168   0.0000   0.0000   0.0000   0.0000
    179    0.000010312677292    0.0    0.00      -9.602588934900      -9.602588934900      -9.602588934900      -9.602578622223   0.0000   0.0000   0.0000   0.0000
    180    0.000008584278063    0.0    0.00      -9.602589088914      -9.602589088914      -9.602589088914      -9.602580504636   0.0000   0.0000   0.0000   0.0000
    181    0.000007105313443    0.0    0.00      -9.602589172614      -9.602589172614      -9.602589172614      -9.602582067300   0.0000   0.0000   0.0000   0.0000
    182    0.000005854587903    0.0    0.00      -9.602589212505      -9.602589212505      -9.602589212505      -9.602583357917   0.0000   0.0000   0.0000   0.0000
    183    0.000004809933996    0.0    0.00      -9.602589229852      -9.602589229852      -9.602589229852      -9.602584419918   0.0000   0.0000   0.0000   0.0000
    184    0.000003948478331    0.0    0.00      -9.602589240759      -9.602589240759      -9.602589240759      -9.602585292281   0.0000   0.0000   0.0000   0.0000
    185    0.000003246732245    0.0    0.00      -9.602589255943      -9.602589255943      -9.602589255943      -9.602586009211   0.0000   0.0000   0.0000   0.0000
    186    0.000002681366414    0.0    0.00      -9.602589281457      -9.602589281457      -9.602589281457      -9.602586600090   0.0000   0.0000   0.0000   0.0000
    187    0.000002230488456    0.0    0.00      -9.602589320316      -9.602589320316      -9.602589320316      -9.602587089827   0.0000   0.0000   0.0000   0.0000
    188    0.000001874401862    0.0    0.00      -9.602589373697      -9.602589373697      -9.602589373697      -9.602587499295   0.0000   0.0000   0.0000   0.0000
    189    0.000001595555974    0.0    0.00      -9.602589441214      -9.602589441214      -9.602589441214      -9.602587845658   0.0000   0.0000   0.0000   0.0000
    190    0.000001378351684    0.0    0.00      -9.602589521060      -9.602589521060      -9.602589521060      -9.602588142709   0.0000   0.0000   0.0000   0.0000
    191    0.000001209257437    0.0    0.00      -9.602589610562      -9.602589610562      -9.602589610562      -9.602588401304   0.0000   0.0000   0.0000   0.0000
    192    0.000001077008992    0.0    0.00      -9.602589706866      -9.602589706866      -9.602589706866      -9.602588629857   0.0000   0.0000   0.0000   0.0000
    193    0.000000972621875    0.0    0.00      -9.602589807393      -9.602589807393      -9.602589807393      -9.602588834772   0.0000   0.0000   0.0000   0.0000

   MAIN:          EKINC   (thr)          DETOT   (thr)       MAXFORCE   (thr)
   MAIN:   0.972622D-06  0.1D-05  0.100528D-06  0.1D-03  0.000000D+00  0.1D+11
   MAIN: convergence achieved for system relaxation

 * Physical Quantities at step:   194
     Pressure of Nuclei (GPa)             0.00000    194
     Pressure Total (GPa)            38.32216    194


                total energy =       -9.60258991014 Hartree a.u.
              kinetic energy =        4.08742 Hartree a.u.
        electrostatic energy =      -10.49749 Hartree a.u.
                         esr =        0.00000 Hartree a.u.
                       eself =       25.53231 Hartree a.u.
      pseudopotential energy =       -0.21288 Hartree a.u.
  n-l pseudopotential energy =        2.07884 Hartree a.u.
 exchange-correlation energy =       -5.05848 Hartree a.u.
           average potential =        0.00000 Hartree a.u.



   Eigenvalues (eV), kp =   1 , spin =  1

   -5.67   -0.00   -0.00   -0.00   -0.00    0.00    0.00    6.30    6.30    6.30
 
 
   CELL_PARAMETERS
   -5.17500000    0.00000000   -5.17500000
    0.00000000    5.17500000    5.17500000
    5.17500000    5.17500000    0.00000000

   System Density [g/cm^3] :              2.2709396404


   System Volume [A.U.^3] :            277.1794687500


   Center of mass square displacement (a.u.):   0.000000

   Total stress (GPa)
       38.31570121         0.02148499         0.00929968
        0.02148500        38.30921393         0.01017909
        0.00929967         0.01017910        38.34156062
   ATOMIC_POSITIONS
   Si      0.00000000000000E+00     0.00000000000000E+00     0.00000000000000E+00
   Si      0.25875000000000E+01     0.25875000000000E+01     0.25875000000000E+01
 
   ATOMIC_VELOCITIES
   Si      0.00000000000000E+00     0.00000000000000E+00     0.00000000000000E+00
   Si      0.00000000000000E+00     0.00000000000000E+00     0.00000000000000E+00
 
   Forces acting on atoms (au):
   Si     -0.18204539360996E-03    -0.12794683375474E-03     0.46828565637471E-04
   Si     -0.20431583628754E-03    -0.15231339637629E-03     0.48575396375457E-04
 


   Partial temperatures (for each ionic specie) 
   Species  Temp (K)   Mean Square Displacement (a.u.)
        1   0.00E+00     0.0000E+00
    194    0.000000889244999    0.0    0.00      -9.602589910138      -9.602589910138      -9.602589910138      -9.602589020893   0.0000   0.0000   0.0000   0.0000

   MAIN:          EKINC   (thr)          DETOT   (thr)       MAXFORCE   (thr)
   MAIN:   0.889245D-06  0.1D-05  0.102745D-06  0.1D-03  0.000000D+00  0.1D+11
   MAIN: convergence achieved for system relaxation

   writing restart file (with schema): ./tmp/silicon_50.save/
     restart      :      0.01s CPU      0.01s WALL (       2 calls)


   Averaged Physical Quantities
                      accumulated      this run
   ekinc         :        0.30351       0.30351 (AU)
   ekin          :        4.53519       4.53519 (AU)
   epot          :      -15.66760     -15.66760 (AU)
   total energy  :       -9.07376      -9.07376 (AU)
   temperature   :        0.00000       0.00000 (K )
   enthalpy      :       -9.07376      -9.07376 (AU)
   econs         :       -9.07376      -9.07376 (AU)
   pressure      :       71.30207      71.30207 (Gpa)
   volume        :      277.17947     277.17947 (AU)



     Called by MAIN_LOOP:
     initialize   :      0.76s CPU      0.83s WALL (       1 calls)
     main_loop    :     10.30s CPU     10.40s WALL (     194 calls)
     cpr_total    :     10.31s CPU     10.42s WALL (       1 calls)

     Called by INIT_RUN:

     Called by CPR:
     cpr_md       :     10.31s CPU     10.42s WALL (     194 calls)
     move_electro :     10.10s CPU     10.19s WALL (     194 calls)

     Called by move_electrons:
     rhoofr       :      6.68s CPU      6.75s WALL (     195 calls)
     vofrho       :      0.66s CPU      0.68s WALL (     195 calls)
     dforce       :      0.05s CPU      0.05s WALL (     975 calls)
     calphi       :      0.00s CPU      0.00s WALL (     195 calls)
     newd         :      2.68s CPU      2.70s WALL (     195 calls)
     nlfl         :      0.00s CPU      0.00s WALL (      21 calls)

     Called by ortho:
     ortho_iter   :      0.05s CPU      0.05s WALL (     195 calls)
     rsg          :      0.09s CPU      0.10s WALL (     195 calls)
     rhoset       :      0.01s CPU      0.01s WALL (     195 calls)
     sigset       :      0.00s CPU      0.00s WALL (     195 calls)
     tauset       :      0.00s CPU      0.00s WALL (     195 calls)
     ortho        :      0.16s CPU      0.17s WALL (     195 calls)
     updatc       :      0.01s CPU      0.01s WALL (     195 calls)

     Small boxes:
     rhov         :      0.34s CPU      0.34s WALL (     195 calls)
     fftb         :      2.83s CPU      2.85s WALL (   19628 calls)
     set_cc       :      0.08s CPU      0.08s WALL (     195 calls)
     forcecc      :      0.22s CPU      0.23s WALL (     195 calls)

     Low-level routines:
     prefor       :      0.00s CPU      0.00s WALL (     195 calls)
     nlfq         :      0.00s CPU      0.00s WALL (      21 calls)
     nlsm1        :      0.00s CPU      0.00s WALL (     196 calls)
     nlsm2        :      0.00s CPU      0.00s WALL (      21 calls)
     nlsm1us      :      0.00s CPU      0.00s WALL (     390 calls)
     fft          :      0.30s CPU      0.31s WALL (    3902 calls)
     ffts         :      0.01s CPU      0.01s WALL (     390 calls)
     fftw         :      0.05s CPU      0.08s WALL (    2925 calls)
     betagx       :      0.34s CPU      0.35s WALL (       1 calls)
     qradx        :      0.22s CPU      0.22s WALL (       1 calls)
     gram         :      0.00s CPU      0.00s WALL (       1 calls)
     nlinit       :      0.69s CPU      0.72s WALL (       1 calls)
     init_dim     :      0.00s CPU      0.00s WALL (       1 calls)
     newnlinit    :      0.05s CPU      0.06s WALL (       1 calls)
     from_scratch :      0.06s CPU      0.09s WALL (       1 calls)
     strucf       :      0.00s CPU      0.00s WALL (       1 calls)
     calbec       :      0.00s CPU      0.00s WALL (     196 calls)
     caldbec_bgrp :      0.02s CPU      0.02s WALL (     196 calls)
     exch_corr    :      0.35s CPU      0.36s WALL (     195 calls)
 
 
     CP           :     11.09s CPU     11.29s WALL

 
   This run was terminated on:  19:19:25  13Mar2026            

=------------------------------------------------------------------------------=
   JOB DONE.
=------------------------------------------------------------------------------=
