
     Program CP v.7.1 starts on 13Mar2026 at 19:19:30 

     This program is part of the open-source Quantum ESPRESSO suite
     for quantum simulation of materials; please cite
         "P. Giannozzi et al., J. Phys.:Condens. Matter 21 395502 (2009);
         "P. Giannozzi et al., J. Phys.:Condens. Matter 29 465901 (2017);
         "P. Giannozzi et al., J. Chem. Phys. 152 154105 (2020);
          URL http://www.quantum-espresso.org", 
     in publications or presentations arising from this work. More details at
     http://www.quantum-espresso.org/quote

     Parallel version (MPI), running on     6 processors

     MPI processes distributed on     1 nodes
     R & G space division:  proc/nbgrp/npool/nimage =       6
     13950 MiB available memory on the printing compute node when the environment starts
 
     Waiting for input...
     Reading input from standard input
Warning: card K_POINTS AUTOMATIC ignored
Warning: card 6 6 6 1 1 1 ignored

   Job Title: MD Simulation


   Atomic Pseudopotentials Parameters
   ----------------------------------

   Reading pseudopotential for specie #  1 from file :
   /home/karan/pseudos/Si.pbe-nl-rrkjus_psl.1.0.0.UPF
   file type is xml


   Main Simulation Parameters (from input)
   ---------------------------------------
   Restart Mode       =       0   reset_counters 
   Number of MD Steps =    4000
   Print out every           10 MD Steps
   Reads from unit    =      51
   Writes to unit     =      52
   MD Simulation time step            =       3.00
   Electronic fictitious mass (emass) =     200.00
   emass cut-off                      =       2.50

   Simulation Cell Parameters (from input)
   external pressure       =            0.00 [KBar]
   wmass (calculated)      =         7780.97 [AU]
   ibrav =    2
   alat  =    10.35000000
   a1    =    -5.17500000    0.00000000    5.17500000
   a2    =     0.00000000    5.17500000    5.17500000
   a3    =    -5.17500000    5.17500000    0.00000000
 
   b1    =    -0.09661836   -0.09661836    0.09661836
   b2    =     0.09661836    0.09661836    0.09661836
   b3    =    -0.09661836    0.09661836   -0.09661836
   omega =     277.17946875

   Energy Cut-offs
   ---------------
   Ecutwfc =   30.0 Ry,      Ecutrho =  200.0 Ry,      Ecuts =  120.0 Ry
   Gcutwfc =    9.0     ,    Gcutrho =   23.3          Gcuts =   18.0
   NOTA BENE: refg, mmx =   0.050000  4800
   Eigenvalues calculated without the kinetic term contribution
   Orthog. with lagrange multipliers : eps =   0.10E-08,  max = 300
   Electron dynamics with newton equations
   Electron dynamics : the temperature is not controlled

   Electronic states
   -----------------
   Number of Electrons=     8, of States =    10
   Occupation numbers :
   2.00 2.00 2.00 2.00 0.00 0.00 0.00 0.00 0.00 0.00


   Exchange and correlations functionals
   -------------------------------------
     Exchange-correlation= PBE
                           (   1   4   3   4   0   0   0)


   Ions Simulation Parameters
   --------------------------
   Ions are allowed to move
   Ions dynamics with newton equations
   the temperature is computed for     6 degrees of freedom
   ion dynamics with fricp =  0.0000 and greasp =  1.0000
   Zero initial momentum for ions
   Ionic position (from input)
   sorted by specie, and converted to real a.u. coordinates
   Species   1 atoms =    2 mass =     51196.73 (a.u.),        28.09 (amu) rcmax =   0.50 (a.u.)
        0.000000     0.000000     0.000000
        2.587500     2.587500     2.587500
   Ionic position will be re-read from restart file

   All atoms are allowed to move
   Ionic temperature control via nose thermostat


   ion dynamics with nose` temperature control:
   temperature required      =  300.00000 (kelvin) 
   NH chain length           =   1
   active degrees of freedom =      6
   time steps per nose osc.  =    459


   nose` frequency(es)       =      30.000


   the requested type of NH chains is     0
   total number of thermostats used     1 0 0
   ionic degrees of freedom for each chain    6


   nose` mass(es) for chain    1 =     548.393


   atom i (in sorted order) is assigned to this thermostat :
   1   1


   Cell Dynamics Parameters (from STDIN)
   -------------------------------------
   internal stress tensor calculated
   Starting cell generated from CELLDM
   Cell parameters will be re-read from restart file
   Constant VOLUME Molecular dynamics
   cell parameters are not allowed to move

   Verbosity: iverbosity =  0



   Simulation dimensions initialization
   ------------------------------------

   unit vectors of full simulation cell
   in real space:                         in reciprocal space (units 2pi/alat):
   1    -5.1750    0.0000    5.1750             -1.0000   -1.0000    1.0000
   2     0.0000    5.1750    5.1750              1.0000    1.0000    1.0000
   3    -5.1750    5.1750    0.0000             -1.0000    1.0000   -1.0000
 
     Parallelization info
     --------------------
     sticks:   dense  smooth     PW     G-vecs:    dense   smooth      PW
     Min         123      72     17                 2219     1028     123
     Max         126      74     20                 2224     1036     128
     Sum         745     439    109                13323     6183     749
 
     Using Slab Decomposition
 
 
   Real Mesh
   ---------
   Global Dimensions   Local  Dimensions   Processor Grid
   .X.   .Y.   .Z.     .X.   .Y.   .Z.     .X.   .Y.   .Z.
    36    36    36      36    36     6       1     1     6
   Array leading dimensions ( nr1x, nr2x, nr3x )   =     36    36    36
   Local number of cell to store the grid ( nrxx ) =       7776
   Number of x-y planes for each processors: 
  |  36,   6  |  36,   6  |  36,   6  |  36,   6  |  36,   6
  |  36,   6  |
   Using Slab Decomposition
 
   Smooth Real Mesh
   ----------------
   Global Dimensions   Local  Dimensions   Processor Grid
   .X.   .Y.   .Z.     .X.   .Y.   .Z.     .X.   .Y.   .Z.
    25    25    25      25    25     5       1     1     6
   Array leading dimensions ( nr1x, nr2x, nr3x )   =     25    25    25
   Local number of cell to store the grid ( nrxx ) =       3125
   Number of x-y planes for each processors: 
  |  25,   5  |  25,   4  |  25,   4  |  25,   4  |  25,   4
  |  25,   4  |
   Using Slab Decomposition
 
   Small Box Real Mesh
   -------------------
   Global Dimensions   Local  Dimensions   Processor Grid
   .X.   .Y.   .Z.     .X.   .Y.   .Z.     .X.   .Y.   .Z.
    30    30    30      30    30    30       1     1     1
   Array leading dimensions ( nr1x, nr2x, nr3x )   =     30    30    30
   Local number of cell to store the grid ( nrxx ) =      27000
 
   unit vectors of box grid cell
   in real space:                         in reciprocal space:
      -4.3125    0.0000    4.3125             -1.0000   -1.0000    1.0000
       0.0000    4.3125    4.3125              1.0000    1.0000    1.0000
      -4.3125    4.3125    0.0000             -1.0000    1.0000   -1.0000
 
   Reciprocal Space Mesh
   ---------------------
   Large Mesh
     Global(ngm_g)    MinLocal       MaxLocal      Average
           6662           1110           1112        1110.33
   Smooth Mesh
     Global(ngms_g)   MinLocal       MaxLocal      Average
           3092            514            518         515.33
   Wave function Mesh
     Global(ngw_g)    MinLocal       MaxLocal      Average
            375             62             64          62.50

   Small box Mesh
   ngb =         3864 not distributed to processors


   System geometry initialization
   ------------------------------
   cell parameters read from restart file
   ibrav =    2       cell parameters 


   cell at current step : h(t)
      -5.17500       0.00000      -5.17500
       0.00000       5.17500       5.17500
       5.17500       5.17500       0.00000

   cell at previous step : h(t-dt)
      -5.17500       0.00000      -5.17500
       0.00000       5.17500       5.17500
       5.17500       5.17500       0.00000
 
 
   unit vectors of box grid cell
   in real space:                         in reciprocal space:
      -4.3125    0.0000    4.3125             -0.7071   -0.7071    0.7071
       0.0000    4.3125    4.3125              0.7071    0.7071    0.7071
      -4.3125    4.3125    0.0000             -0.7071    0.7071   -0.7071
     Subspace diagonalization in iterative solution of the eigenvalue problem:
     one sub-group per band group will be used
     scalapack distributed-memory algorithm (size of sub-group:  2*  2 procs)


   Matrix Multiplication Performances
   ortho mmul, time for parallel driver      =   0.00002 with    4 procs

   Constraints matrixes will be distributed block like on
   ortho sub-group =    2*   2 procs



   Pseudopotentials initialization
   -------------------------------
is, nh(is), ngb, kkbeta, lmaxq =     1    8 3864  829    3
 
                        qqq 
  -0.0772  -0.0666   0.0000   0.0000
  -0.0666  -0.0419   0.0000   0.0000
   0.0000   0.0000  -0.0095  -0.0249
   0.0000   0.0000  -0.0249  -0.0561
 


   Common initialization

   Specie:     1
   1  indv=  1   ang. mom=  0
   2  indv=  2   ang. mom=  0
   3  indv=  3   ang. mom=  1
   4  indv=  3   ang. mom=  1
   5  indv=  3   ang. mom=  1
   6  indv=  4   ang. mom=  1
   7  indv=  4   ang. mom=  1
   8  indv=  4   ang. mom=  1
 
                        dion 
   0.3872   0.3449   0.0000   0.0000
   0.3449   0.7963   0.0000   0.0000
   0.0000   0.0000   0.1675   0.1356
   0.0000   0.0000   0.1356   0.3372

   Cell parameters from input file are used in electron mass preconditioning
   init_tpiba2=    0.36853525
 
   Short Legend and Physical Units in the Output
   ---------------------------------------------
   NFI    [int]          - step index
   EKINC  [HARTREE A.U.] - kinetic energy of the fictitious electronic dynamics
   TEMPH  [K]            - Temperature of the fictitious cell dynamics
   TEMP   [K]            - Ionic temperature
   ETOT   [HARTREE A.U.] - Scf total energy (Kohn-Sham hamiltonian)
   ENTHAL [HARTREE A.U.] - Enthalpy ( ETOT + P * V )
   ECONS  [HARTREE A.U.] - Enthalpy + kinetic energy of ions and cell
   ECONT  [HARTREE A.U.] - Constant of motion for the CP lagrangian
 
 Ionic velocities set to zero
 Electronic velocities set to zero

   formf: eself=    25.53231
   formf:     vps(g=0)=  -0.0125303     rhops(g=0)=  -0.0144311
   formf:     vps(g=0)=  -0.0111885     rhops(g=0)=  -0.0134676
   formf:     vps(g=0)=  -0.0111885     rhops(g=0)=  -0.0134676
   formf:     vps(g=0)=  -0.0107528     rhops(g=0)=  -0.0131609
   formf:     vps(g=0)=  -0.0090756     rhops(g=0)=  -0.0120025
   formf: sum_g vps(g)=   0.6384321 sum_g rhops(g)=  -2.8755295
   Delta V(G=0):   0.022668Ry,    0.616836eV
 
  nfi     ekinc              temph  tempp     etot                 enthal               econs                econt              vnhh    xnhh0   vnhp    xnhp0
      1    0.000000081313541    0.0    0.00      -9.602403014058      -9.602403014058      -9.602403009357      -9.602402861386   0.0000   0.0000  -0.0000   0.0000
      2    0.000000317354700    0.0    0.00      -9.602403327699      -9.602403327699      -9.602403285540      -9.602402901534   0.0000   0.0000  -0.0000  -0.0001
      3    0.000000551648110    0.0    0.01      -9.602403663235      -9.602403663235      -9.602403546829      -9.602402928563   0.0000   0.0000  -0.0001  -0.0003
      4    0.000000612361536    0.0    0.02      -9.602403819199      -9.602403819199      -9.602403592419      -9.602402913541   0.0000   0.0000  -0.0001  -0.0006
      5    0.000000569042422    0.0    0.04      -9.602403897486      -9.602403897486      -9.602403523903      -9.602402888575   0.0000   0.0000  -0.0001  -0.0009
      6    0.000000556974316    0.0    0.06      -9.602404075484      -9.602404075484      -9.602403516874      -9.602402894059   0.0000   0.0000  -0.0002  -0.0014
      7    0.000000551913107    0.0    0.08      -9.602404317950      -9.602404317950      -9.602403533081      -9.602402916092   0.0000   0.0000  -0.0002  -0.0020
      8    0.000000443517686    0.0    0.11      -9.602404474256      -9.602404474256      -9.602403418807      -9.602402911431   0.0000   0.0000  -0.0002  -0.0026
      9    0.000000270997099    0.0    0.14      -9.602404583948      -9.602404583948      -9.602403211957      -9.602402878933   0.0000   0.0000  -0.0003  -0.0034
     10    0.000000223644969    0.0    0.18      -9.602404882019      -9.602404882019      -9.602403148539      -9.602402865499   0.0000   0.0000  -0.0003  -0.0042
     11    0.000000375656138    0.0    0.22      -9.602405462836      -9.602405462836      -9.602403326758      -9.602402895344   0.0000   0.0000  -0.0003  -0.0051
     12    0.000000552962198    0.0    0.27      -9.602406108515      -9.602406108515      -9.602403534192      -9.602402930339   0.0000   0.0000  -0.0004  -0.0062
     13    0.000000552729444    0.0    0.32      -9.602406564213      -9.602406564213      -9.602403520933      -9.602402923639   0.0000   0.0000  -0.0004  -0.0073
     14    0.000000410694406    0.0    0.37      -9.602406875380      -9.602406875380      -9.602403334675      -9.602402887443   0.0000   0.0000  -0.0004  -0.0085
     15    0.000000333029067    0.0    0.43      -9.602407301351      -9.602407301351      -9.602403233216      -9.602402873634   0.0000   0.0000  -0.0005  -0.0098
     16    0.000000401567521    0.0    0.49      -9.602407943388      -9.602407943388      -9.602403313037      -9.602402897144   0.0000   0.0000  -0.0005  -0.0112
     17    0.000000485719107    0.0    0.55      -9.602408635841      -9.602408635841      -9.602403402440      -9.602402917179   0.0000   0.0000  -0.0005  -0.0127
     18    0.000000469796624    0.0    0.62      -9.602409236071      -9.602409236071      -9.602403353973      -9.602402902331   0.0000   0.0000  -0.0005  -0.0143
     19    0.000000431100644    0.0    0.69      -9.602409848682      -9.602409848682      -9.602403270593      -9.602402878646   0.0000   0.0000  -0.0006  -0.0160
     20    0.000000497233314    0.0    0.77      -9.602410640416      -9.602410640416      -9.602403320985      -9.602402887622   0.0000   0.0000  -0.0006  -0.0178
     21    0.000000616092299    0.0    0.85      -9.602411545106      -9.602411545106      -9.602403443164      -9.602402919806   0.0000   0.0000  -0.0006  -0.0196
     22    0.000000609943020    0.0    0.94      -9.602412332415      -9.602412332415      -9.602403410673      -9.602402926913   0.0000   0.0000  -0.0007  -0.0216
     23    0.000000445111544    0.0    1.03      -9.602412953229      -9.602412953229      -9.602403175428      -9.602402894983   0.0000   0.0000  -0.0007  -0.0237
     24    0.000000306936060    0.0    1.12      -9.602413638652      -9.602413638652      -9.602402965515      -9.602402867238   0.0000   0.0000  -0.0007  -0.0258
     25    0.000000353157521    0.0    1.22      -9.602414589579      -9.602414589579      -9.602402975637      -9.602402881157   0.0000   0.0000  -0.0008  -0.0280
     26    0.000000501647606    0.0    1.33      -9.602415707371      -9.602415707371      -9.602403100547      -9.602402914189   0.0000   0.0000  -0.0008  -0.0304
     27    0.000000559281384    0.0    1.44      -9.602416754623      -9.602416754623      -9.602403099246      -9.602402919084   0.0000   0.0000  -0.0008  -0.0328
     28    0.000000492689080    0.0    1.55      -9.602417693792      -9.602417693792      -9.602402936135      -9.602402894266   0.0000   0.0000  -0.0009  -0.0353
     29    0.000000442120893    0.0    1.67      -9.602418700026      -9.602418700026      -9.602402794105      -9.602402883035   0.0000   0.0000  -0.0009  -0.0379
     30    0.000000479480547    0.0    1.80      -9.602419884550      -9.602419884550      -9.602402795436      -9.602402936405   0.0000   0.0000  -0.0009  -0.0407
     31    0.000000495819858    0.0    1.93      -9.602421029688      -9.602421029688      -9.602402732415      -9.602402956211   0.0000   0.0000  -0.0009  -0.0435
     32    0.000000391651575    0.0    2.06      -9.602422027680      -9.602422027680      -9.602402501536      -9.602402939008   0.0000   0.0000  -0.0010  -0.0463
     33    0.000000267975629    0.0    2.19      -9.602423003641      -9.602423003641      -9.602402223707      -9.602402905294   0.0000   0.0000  -0.0010  -0.0493
     34    0.000000307412477    0.0    2.32      -9.602424199223      -9.602424199223      -9.602402128458      -9.602402902627   0.0000   0.0000  -0.0010  -0.0524
     35    0.000000507893077    0.0    2.46      -9.602425631965      -9.602425631965      -9.602402217099      -9.602402935145   0.0000   0.0000  -0.0011  -0.0556
     36    0.000000665285801    0.0    2.61      -9.602427066104      -9.602427066104      -9.602402239182      -9.602402957416   0.0000   0.0000  -0.0011  -0.0589
     37    0.000000638136400    0.0    2.77      -9.602428338996      -9.602428338996      -9.602402024190      -9.602402941369   0.0000   0.0000  -0.0011  -0.0622
     38    0.000000513796120    0.0    2.93      -9.602429563840      -9.602429563840      -9.602401687020      -9.602402915602   0.0000   0.0000  -0.0012  -0.0657
     39    0.000000449916583    0.0    3.11      -9.602430926283      -9.602430926283      -9.602401423700      -9.602402919542   0.0000   0.0000  -0.0012  -0.0692
     40    0.000000447275766    0.0    3.28      -9.602432401881      -9.602432401881      -9.602401224604      -9.602402943781   0.0000   0.0000  -0.0012  -0.0728
     41    0.000000392418441    0.0    3.46      -9.602433821432      -9.602433821432      -9.602400933927      -9.602402946893   0.0000   0.0000  -0.0013  -0.0766
     42    0.000000281067614    0.0    3.64      -9.602435165206      -9.602435165206      -9.602400538917      -9.602402921268   0.0000   0.0000  -0.0013  -0.0804
     43    0.000000256478862    0.0    3.83      -9.602436616335      -9.602436616335      -9.602400221292      -9.602402906231   0.0000   0.0000  -0.0013  -0.0843
     44    0.000000390498463    0.0    4.02      -9.602438279915      -9.602438279915      -9.602400078183      -9.602402927986   0.0000   0.0000  -0.0014  -0.0883
     45    0.000000543990706    0.0    4.22      -9.602439997027      -9.602439997027      -9.602399940862      -9.602402957945   0.0000   0.0000  -0.0014  -0.0924
     46    0.000000537673221    0.0    4.42      -9.602441551063      -9.602441551063      -9.602399586336      -9.602402953496   0.0000   0.0000  -0.0014  -0.0966
     47    0.000000398924599    0.0    4.62      -9.602442973903      -9.602442973903      -9.602399046795      -9.602402920603   0.0000   0.0000  -0.0014  -0.1009
     48    0.000000327645805    0.0    4.84      -9.602444503248      -9.602444503248      -9.602398566498      -9.602402904772   0.0000   0.0000  -0.0015  -0.1053
     49    0.000000431224423    0.0    5.05      -9.602446255366      -9.602446255366      -9.602398270368      -9.602402924648   0.0000   0.0000  -0.0015  -0.1097
     50    0.000000607169678    0.0    5.27      -9.602448089252      -9.602448089252      -9.602398022059      -9.602402947446   0.0000   0.0000  -0.0015  -0.1143
     51    0.000000719262464    0.0    5.49      -9.602449839686      -9.602449839686      -9.602397651830      -9.602402940735   0.0000   0.0000  -0.0016  -0.1189
     52    0.000000780693234    0.0    5.72      -9.602451549880      -9.602451549880      -9.602397187593      -9.602402920439   0.0000   0.0000  -0.0016  -0.1237
     53    0.000000873411605    0.0    5.96      -9.602453359895      -9.602453359895      -9.602396746535      -9.602402923207   0.0000   0.0000  -0.0016  -0.1285
     54    0.000000954635004    0.0    6.21      -9.602455246998      -9.602455246998      -9.602396282639      -9.602402947480   0.0000   0.0000  -0.0017  -0.1334
     55    0.000000876939696    0.0    6.47      -9.602457038267      -9.602457038267      -9.602395607758      -9.602402954448   0.0000   0.0000  -0.0017  -0.1384
     56    0.000000612200622    0.0    6.74      -9.602458688065      -9.602458688065      -9.602394675472      -9.602402927872   0.0000   0.0000  -0.0017  -0.1436
     57    0.000000340080525    0.0    7.02      -9.602460392568      -9.602460392568      -9.602393697199      -9.602402901543   0.0000   0.0000  -0.0017  -0.1488
     58    0.000000247081835    0.0    7.31      -9.602462345494      -9.602462345494      -9.602392893752      -9.602402911646   0.0000   0.0000  -0.0018  -0.1540
     59    0.000000309108952    0.0    7.61      -9.602464477040      -9.602464477040      -9.602392225683      -9.602402944435   0.0000   0.0000  -0.0018  -0.1594
     60    0.000000358855117    0.0    7.90      -9.602466551597      -9.602466551597      -9.602391481162      -9.602402956730   0.0000   0.0000  -0.0018  -0.1649
     61    0.000000326861517    0.0    8.20      -9.602468477994      -9.602468477994      -9.602390578977      -9.602402937950   0.0000   0.0000  -0.0019  -0.1705
     62    0.000000306090049    0.0    8.50      -9.602470387464      -9.602470387464      -9.602389644626      -9.602402921786   0.0000   0.0000  -0.0019  -0.1761
     63    0.000000370175454    0.0    8.80      -9.602472394207      -9.602472394207      -9.602388774925      -9.602402932711   0.0000   0.0000  -0.0019  -0.1819
     64    0.000000442909477    0.0    9.11      -9.602474420447      -9.602474420447      -9.602387871029      -9.602402949616   0.0000   0.0000  -0.0020  -0.1877
     65    0.000000421885302    0.0    9.43      -9.602476346552      -9.602476346552      -9.602386796849      -9.602402940593   0.0000   0.0000  -0.0020  -0.1936
     66    0.000000359321092    0.0    9.75      -9.602478238231      -9.602478238231      -9.602385611273      -9.602402914255   0.0000   0.0000  -0.0020  -0.1997
     67    0.000000410293199    0.0   10.08      -9.602480284071      -9.602480284071      -9.602384505425      -9.602402908656   0.0000   0.0000  -0.0021  -0.2058
     68    0.000000611957266    0.0   10.42      -9.602482522900      -9.602482522900      -9.602383524813      -9.602402934139   0.0000   0.0000  -0.0021  -0.2120
     69    0.000000819164686    0.0   10.77      -9.602484770073      -9.602484770073      -9.602382488116      -9.602402956492   0.0000   0.0000  -0.0021  -0.2183
     70    0.000000894907645    0.0   11.12      -9.602486863207      -9.602486863207      -9.602381226873      -9.602402946277   0.0000   0.0000  -0.0021  -0.2246
     71    0.000000878591860    0.0   11.48      -9.602488873916      -9.602488873916      -9.602379795811      -9.602402921009   0.0000   0.0000  -0.0022  -0.2311
     72    0.000000892840535    0.0   11.86      -9.602490982946      -9.602490982946      -9.602378352338      -9.602402917975   0.0000   0.0000  -0.0022  -0.2377
     73    0.000000940049679    0.0   12.24      -9.602493213030      -9.602493213030      -9.602376898012      -9.602402939182   0.0000   0.0000  -0.0022  -0.2443
     74    0.000000897569903    0.0   12.65      -9.602495413910      -9.602495413910      -9.602375272858      -9.602402950423   0.0000   0.0000  -0.0023  -0.2511
     75    0.000000714890771    0.0   13.06      -9.602497506858      -9.602497506858      -9.602373405737      -9.602402934266   0.0000   0.0000  -0.0023  -0.2579
     76    0.000000511334495    0.0   13.49      -9.602499609454      -9.602499609454      -9.602371438613      -9.602402916401   0.0000   0.0000  -0.0023  -0.2648
     77    0.000000424224621    0.0   13.93      -9.602501851671      -9.602501851671      -9.602369535396      -9.602402926115   0.0000   0.0000  -0.0024  -0.2718
     78    0.000000432505683    0.0   14.37      -9.602504165956      -9.602504165956      -9.602367660497      -9.602402951152   0.0000   0.0000  -0.0024  -0.2789
     79    0.000000415280003    0.0   14.81      -9.602506374587      -9.602506374587      -9.602365654792      -9.602402955230   0.0000   0.0000  -0.0024  -0.2861
     80    0.000000350846157    0.0   15.26      -9.602508449121      -9.602508449121      -9.602363488390      -9.602402931992   0.0000   0.0000  -0.0024  -0.2934
     81    0.000000353435219    0.0   15.71      -9.602510555673      -9.602510555673      -9.602361306681      -9.602402914606   0.0000   0.0000  -0.0025  -0.3007
     82    0.000000492641571    0.0   16.17      -9.602512817265      -9.602512817265      -9.602359200618      -9.602402926848   0.0000   0.0000  -0.0025  -0.3082
     83    0.000000669451809    0.0   16.64      -9.602515143670      -9.602515143670      -9.602357048364      -9.602402948822   0.0000   0.0000  -0.0025  -0.3157
     84    0.000000739202995    0.0   17.13      -9.602517374482      -9.602517374482      -9.602354669215      -9.602402947855   0.0000   0.0000  -0.0026  -0.3234
     85    0.000000702895245    0.0   17.63      -9.602519514061      -9.602519514061      -9.602352064103      -9.602402927490   0.0000   0.0000  -0.0026  -0.3311
     86    0.000000687065916    0.0   18.14      -9.602521707089      -9.602521707089      -9.602349389354      -9.602402921125   0.0000   0.0000  -0.0026  -0.3389
     87    0.000000748182639    0.0   18.66      -9.602523999787      -9.602523999787      -9.602346709811      -9.602402940565   0.0000   0.0000  -0.0026  -0.3468
     88    0.000000795802494    0.0   19.19      -9.602526255097      -9.602526255097      -9.602343903354      -9.602402957355   0.0000   0.0000  -0.0027  -0.3548
     89    0.000000744832088    0.0   19.74      -9.602528355731      -9.602528355731      -9.602340855516      -9.602402945242   0.0000   0.0000  -0.0027  -0.3628
     90    0.000000660359221    0.0   20.29      -9.602530391196      -9.602530391196      -9.602337644094      -9.602402920168   0.0000   0.0000  -0.0027  -0.3710
     91    0.000000670321921    0.0   20.85      -9.602532605492      -9.602532605492      -9.602334491559      -9.602402980218   0.0000   0.0000  -0.0028  -0.3792
     92    0.000000772306415    0.0   21.43      -9.602534891740      -9.602534891740      -9.602331269473      -9.602403003327   0.0000   0.0000  -0.0028  -0.3876
     93    0.000000825916222    0.0   22.03      -9.602537145759      -9.602537145759      -9.602327862461      -9.602403018813   0.0000   0.0000  -0.0028  -0.3960
     94    0.000000749231633    0.0   22.64      -9.602539255616      -9.602539255616      -9.602324163879      -9.602403006366   0.0000   0.0000  -0.0028  -0.4045
     95    0.000000634426847    0.0   23.26      -9.602541310446      -9.602541310446      -9.602320283530      -9.602402987873   0.0000   0.0000  -0.0029  -0.4131
     96    0.000000617165049    0.0   23.90      -9.602543444176      -9.602543444176      -9.602316383064      -9.602402993222   0.0000   0.0000  -0.0029  -0.4218
     97    0.000000695177403    0.0   24.54      -9.602545621020      -9.602545621020      -9.602312449116      -9.602403014832   0.0000   0.0000  -0.0029  -0.4305
     98    0.000000758832436    0.0   25.19      -9.602547688648      -9.602547688648      -9.602308335310      -9.602403019257   0.0000   0.0000  -0.0030  -0.4394
     99    0.000000773481087    0.0   25.85      -9.602549616444      -9.602549616444      -9.602303995374      -9.602402998289   0.0000   0.0000  -0.0030  -0.4483

 * Physical Quantities at step:   100

   from rhoofr: total integrated electronic density
   in g-space =      8.000000   in r-space =     8.000000
     Total Electronic Pressure (GPa)       37.88529    100
     Pressure of Nuclei (GPa)             0.01783    100
     Pressure Total (GPa)            38.34132    100


                total energy =       -9.60255155346 Hartree a.u.
              kinetic energy =        4.08743 Hartree a.u.
        electrostatic energy =      -10.49747 Hartree a.u.
                         esr =        0.00000 Hartree a.u.
                       eself =       25.53231 Hartree a.u.
      pseudopotential energy =       -0.21288 Hartree a.u.
  n-l pseudopotential energy =        2.07884 Hartree a.u.
 exchange-correlation energy =       -5.05848 Hartree a.u.
           average potential =        0.00000 Hartree a.u.



   Eigenvalues (eV), kp =   1 , spin =  1

   -5.67   -0.00   -0.00   -0.00    0.00    0.00    0.00    6.25    6.32    6.34
 
 
   CELL_PARAMETERS
   -5.17500000    0.00000000   -5.17500000
    0.00000000    5.17500000    5.17500000
    5.17500000    5.17500000    0.00000000

   System Density [g/cm^3] :              2.2709396404


   System Volume [A.U.^3] :            277.1794687500


   Center of mass square displacement (a.u.):   0.000000

   Total stress (GPa)
       38.33611737        -0.19505499        -0.26684296
       -0.19505499        38.35117022         0.14009172
       -0.26684524         0.14009274        38.33668023
   ATOMIC_POSITIONS
   Si     -0.41382882466631E-02    -0.59408931993220E-02    -0.73522099553242E-02
   Si      0.25774798344111E+01     0.25945780382570E+01     0.25887621710911E+01
 
   ATOMIC_VELOCITIES
   Si     -0.25490112963394E-04     0.54291224968920E-04     0.36401666002745E-04
   Si      0.25490112963431E-04    -0.54291224968803E-04    -0.36401666002623E-04
 
   Forces acting on atoms (au):
   Si     -0.16187285560645E-02     0.33364482848774E-02     0.21687410335589E-02
   Si      0.17547466309422E-02    -0.36262211872478E-02    -0.23952856402843E-02
 


   Partial temperatures (for each ionic specie) 
   Species  Temp (K)   Mean Square Displacement (a.u.)
        1   2.65E+01     9.4976E-05
 
  nfi     ekinc              temph  tempp     etot                 enthal               econs                econt              vnhh    xnhh0   vnhp    xnhp0
    100    0.000000827801030    0.0   26.53      -9.602551553462      -9.602551553462      -9.602299544485      -9.602402982324   0.0000   0.0000  -0.0030  -0.4573

   writing restart file (with schema): ./tmp/silicon_52.save/
     restart      :      0.00s CPU      0.00s WALL (       1 calls)
    101    0.000000972527863    0.0   27.22      -9.602553610970      -9.602553610970      -9.602295052654      -9.602402995260   0.0000   0.0000  -0.0030  -0.4664
    102    0.000001100927977    0.0   27.93      -9.602555692683      -9.602555692683      -9.602290388997      -9.602403018326   0.0000   0.0000  -0.0031  -0.4756
    103    0.000001069043552    0.0   28.66      -9.602557631012      -9.602557631012      -9.602285369645      -9.602403017544   0.0000   0.0000  -0.0031  -0.4849
    104    0.000000893876686    0.0   29.41      -9.602559431664      -9.602559431664      -9.602280006934      -9.602402994359   0.0000   0.0000  -0.0031  -0.4943
    105    0.000000740279410    0.0   30.18      -9.602561263333      -9.602561263333      -9.602274494823      -9.602402983780   0.0000   0.0000  -0.0032  -0.5037
    106    0.000000709650254    0.0   30.97      -9.602563205980      -9.602563205980      -9.602268945890      -9.602403002420   0.0000   0.0000  -0.0032  -0.5132
    107    0.000000730570493    0.0   31.77      -9.602565130478      -9.602565130478      -9.602263257360      -9.602403023861   0.0000   0.0000  -0.0032  -0.5228
    108    0.000000697241317    0.0   32.59      -9.602566886608      -9.602566886608      -9.602257288813      -9.602403018122   0.0000   0.0000  -0.0032  -0.5325
    109    0.000000636573930    0.0   33.41      -9.602568517095      -9.602568517095      -9.602251073404      -9.602402996132   0.0000   0.0000  -0.0033  -0.5423
    110    0.000000653101528    0.0   34.25      -9.602570179451      -9.602570179451      -9.602244745298      -9.602402992577   0.0000   0.0000  -0.0033  -0.5522
    111    0.000000745696707    0.0   35.11      -9.602571898488      -9.602571898488      -9.602238303418      -9.602403013102   0.0000   0.0000  -0.0033  -0.5621
    112    0.000000788604511    0.0   35.99      -9.602573527058      -9.602573527058      -9.602231583897      -9.602403025676   0.0000   0.0000  -0.0034  -0.5722
    113    0.000000719080434    0.0   36.89      -9.602574976058      -9.602574976058      -9.602224496906      -9.602403009546   0.0000   0.0000  -0.0034  -0.5823
    114    0.000000651542281    0.0   37.81      -9.602576362771      -9.602576362771      -9.602217173783      -9.602402987900   0.0000   0.0000  -0.0034  -0.5925
    115    0.000000735481888    0.0   38.74      -9.602577844047      -9.602577844047      -9.602209791336      -9.602402994043   0.0000   0.0000  -0.0034  -0.6027
    116    0.000000953957959    0.0   39.69      -9.602579377169      -9.602579377169      -9.602202320005      -9.602403021062   0.0000   0.0000  -0.0035  -0.6131
    117    0.000001152952157    0.0   40.65      -9.602580769002      -9.602580769002      -9.602194562133      -9.602403030992   0.0000   0.0000  -0.0035  -0.6235
    118    0.000001253479363    0.0   41.63      -9.602581947644      -9.602581947644      -9.602186419648      -9.602403010789   0.0000   0.0000  -0.0035  -0.6341
    119    0.000001331304166    0.0   42.64      -9.602583055801      -9.602583055801      -9.602177992629      -9.602402991597   0.0000   0.0000  -0.0035  -0.6447
    120    0.000001454131564    0.0   43.67      -9.602584228366      -9.602584228366      -9.602169369602      -9.602403002089   0.0000   0.0000  -0.0036  -0.6553
    121    0.000001535593301    0.0   44.73      -9.602585388347      -9.602585388347      -9.602160438828      -9.602403025705   0.0000   0.0000  -0.0036  -0.6661
    122    0.000001441015185    0.0   45.82      -9.602586366711      -9.602586366711      -9.602151019968      -9.602403026194   0.0000   0.0000  -0.0036  -0.6769
    123    0.000001195012803    0.0   46.95      -9.602587162518      -9.602587162518      -9.602141127651      -9.602403003055   0.0000   0.0000  -0.0037  -0.6878
    124    0.000000976511868    0.0   48.10      -9.602587946290      -9.602587946290      -9.602130968345      -9.602402992855   0.0000   0.0000  -0.0037  -0.6988
    125    0.000000897360040    0.0   49.27      -9.602588797488      -9.602588797488      -9.602120663835      -9.602403013791   0.0000   0.0000  -0.0037  -0.7099
    126    0.000000883543521    0.0   50.47      -9.602589573232      -9.602589573232      -9.602110103938      -9.602403037194   0.0000   0.0000  -0.0037  -0.7211
    127    0.000000825255405    0.0   51.68      -9.602590112195      -9.602590112195      -9.602099138637      -9.602403029927   0.0000   0.0000  -0.0038  -0.7323
    128    0.000000760203739    0.0   52.91      -9.602590470406      -9.602590470406      -9.602087810892      -9.602403004382   0.0000   0.0000  -0.0038  -0.7436
    129    0.000000809555501    0.0   54.16      -9.602590831883      -9.602590831883      -9.602076273831      -9.602403000210   0.0000   0.0000  -0.0038  -0.7550
    130    0.000000967779380    0.0   55.44      -9.602591225500      -9.602591225500      -9.602064520572      -9.602403024575   0.0000   0.0000  -0.0038  -0.7665
    131    0.000001077661805    0.0   56.75      -9.602591475369      -9.602591475369      -9.602052348240      -9.602403041119   0.0000   0.0000  -0.0039  -0.7780
    132    0.000001045162358    0.0   58.09      -9.602591462567      -9.602591462567      -9.602039628148      -9.602403025010   0.0000   0.0000  -0.0039  -0.7896
    133    0.000000979030850    0.0   59.45      -9.602591303469      -9.602591303469      -9.602026483974      -9.602403001100   0.0000   0.0000  -0.0039  -0.8013
    134    0.000001041055588    0.0   60.85      -9.602591171637      -9.602591171637      -9.602013105220      -9.602403006840   0.0000   0.0000  -0.0039  -0.8131
    135    0.000001221558748    0.0   62.27      -9.602591029187      -9.602591029187      -9.601999465824      -9.602403035335   0.0000   0.0000  -0.0040  -0.8249
    136    0.000001367240341    0.0   63.71      -9.602590675298      -9.602590675298      -9.601985361450      -9.602403045005   0.0000   0.0000  -0.0040  -0.8368
    137    0.000001411146212    0.0   65.19      -9.602590042739      -9.602590042739      -9.601970701584      -9.602403022137   0.0000   0.0000  -0.0040  -0.8488
    138    0.000001454239441    0.0   66.70      -9.602589295375      -9.602589295375      -9.601955611708      -9.602403001908   0.0000   0.0000  -0.0040  -0.8609
    139    0.000001579307707    0.0   68.25      -9.602588576844      -9.602588576844      -9.601940194107      -9.602403015517   0.0000   0.0000  -0.0041  -0.8730
    140    0.000001690767131    0.0   69.84      -9.602587788753      -9.602587788753      -9.601924320644      -9.602403043074   0.0000   0.0000  -0.0041  -0.8852
    141    0.000001638627870    0.0   71.46      -9.602586734580      -9.602586734580      -9.601907787473      -9.602403043938   0.0000   0.0000  -0.0041  -0.8975
    142    0.000001449572267    0.0   73.13      -9.602585411267      -9.602585411267      -9.601890608811      -9.602403018840   0.0000   0.0000  -0.0041  -0.9098
    143    0.000001314010486    0.0   74.84      -9.602584003829      -9.602584003829      -9.601873003773      -9.602403009144   0.0000   0.0000  -0.0042  -0.9223
    144    0.000001337523830    0.0   76.58      -9.602582588761      -9.602582588761      -9.601855084775      -9.602403033555   0.0000   0.0000  -0.0042  -0.9347
    145    0.000001419551647    0.0   78.34      -9.602580999210      -9.602580999210      -9.601836706350      -9.602403058385   0.0000   0.0000  -0.0042  -0.9473
    146    0.000001432225054    0.0   80.14      -9.602579064577      -9.602579064577      -9.601817693568      -9.602403047635   0.0000   0.0000  -0.0042  -0.9599
    147    0.000001420864341    0.0   81.97      -9.602576866580      -9.602576866580      -9.601798096683      -9.602403017802   0.0000   0.0000  -0.0042  -0.9726
    148    0.000001518859714    0.0   83.84      -9.602574620566      -9.602574620566      -9.601778081454      -9.602403013909   0.0000   0.0000  -0.0043  -0.9854
    149    0.000001709918642    0.0   85.76      -9.602572354237      -9.602572354237      -9.601757623776      -9.602403042154   0.0000   0.0000  -0.0043  -0.9982
    150    0.000001810885523    0.0   87.72      -9.602569865219      -9.602569865219      -9.601736483711      -9.602403060997   0.0000   0.0000  -0.0043  -1.0111
    151    0.000001717604738    0.0   89.73      -9.602567020132      -9.602567020132      -9.601714515157      -9.602403044465   0.0000   0.0000  -0.0043  -1.0241
    152    0.000001552360382    0.0   91.79      -9.602563941490      -9.602563941490      -9.601691853409      -9.602403021636   0.0000   0.0000  -0.0044  -1.0371
    153    0.000001490936594    0.0   93.90      -9.602560799865      -9.602560799865      -9.601668698093      -9.602403031949   0.0000   0.0000  -0.0044  -1.0502
    154    0.000001525414991    0.0   96.05      -9.602557531051      -9.602557531051      -9.601645015146      -9.602403064153   0.0000   0.0000  -0.0044  -1.0634
    155    0.000001512355579    0.0   98.24      -9.602553914949      -9.602553914949      -9.601620600911      -9.602403072361   0.0000   0.0000  -0.0044  -1.0766
    156    0.000001421361479    0.0  100.47      -9.602549901691      -9.602549901691      -9.601595399843      -9.602403045660   0.0000   0.0000  -0.0044  -1.0899
    157    0.000001395993094    0.0  102.74      -9.602545688108      -9.602545688108      -9.601569582186      -9.602403025434   0.0000   0.0000  -0.0045  -1.1032
    158    0.000001530143316    0.0  105.07      -9.602541421627      -9.602541421627      -9.601543257818      -9.602403043261   0.0000   0.0000  -0.0045  -1.1166
    159    0.000001705449315    0.0  107.44      -9.602536975835      -9.602536975835      -9.601516265920      -9.602403073285   0.0000   0.0000  -0.0045  -1.1301
    160    0.000001750410171    0.0  109.86      -9.602532137390      -9.602532137390      -9.601488373847      -9.602403071734   0.0000   0.0000  -0.0045  -1.1436
    161    0.000001692493451    0.0  112.34      -9.602526982699      -9.602526982699      -9.601459658278      -9.602403105489   0.0000   0.0000  -0.0045  -1.1572
    162    0.000001722537737    0.0  114.88      -9.602521593370      -9.602521593370      -9.601430215697      -9.602403097697   0.0000   0.0000  -0.0046  -1.1709
    163    0.000001920444585    0.0  117.46      -9.602516093362      -9.602516093362      -9.601400187134      -9.602403126578   0.0000   0.0000  -0.0046  -1.1846
    164    0.000002148378649    0.0  120.09      -9.602510283890      -9.602510283890      -9.601369378364      -9.602403152558   0.0000   0.0000  -0.0046  -1.1984
    165    0.000002262634529    0.0  122.77      -9.602503986108      -9.602503986108      -9.601337592322      -9.602403139284   0.0000   0.0000  -0.0046  -1.2122
    166    0.000002316778189    0.0  125.51      -9.602497299856      -9.602497299856      -9.601304886760      -9.602403108790   0.0000   0.0000  -0.0046  -1.2261
    167    0.000002446633044    0.0  128.31      -9.602490445992      -9.602490445992      -9.601271425710      -9.602403108504   0.0000   0.0000  -0.0047  -1.2400
    168    0.000002620281211    0.0  131.18      -9.602483428525      -9.602483428525      -9.601237157860      -9.602403139823   0.0000   0.0000  -0.0047  -1.2540
    169    0.000002648315953    0.0  134.12      -9.602476026746      -9.602476026746      -9.601201825772      -9.602403156801   0.0000   0.0000  -0.0047  -1.2680
    170    0.000002453966502    0.0  137.13      -9.602468125632      -9.602468125632      -9.601165307420      -9.602403136884   0.0000   0.0000  -0.0047  -1.2821
    171    0.000002200191391    0.0  140.21      -9.602459878035      -9.602459878035      -9.601127778881      -9.602403115661   0.0000   0.0000  -0.0047  -1.2962
    172    0.000002078211465    0.0  143.36      -9.602451449939      -9.602451449939      -9.601089448974      -9.602403132248   0.0000   0.0000  -0.0047  -1.3104
    173    0.000002069027536    0.0  146.57      -9.602442739411      -9.602442739411      -9.601050260299      -9.602403168480   0.0000   0.0000  -0.0048  -1.3247
    174    0.000002026517882    0.0  149.84      -9.602433504262      -9.602433504262      -9.601009998455      -9.602403175230   0.0000   0.0000  -0.0048  -1.3389
    175    0.000001940788056    0.0  153.16      -9.602423710858      -9.602423710858      -9.600968628944      -9.602403146581   0.0000   0.0000  -0.0048  -1.3533
    176    0.000001969732684    0.0  156.54      -9.602413661694      -9.602413661694      -9.600926423641      -9.602403215569   0.0000   0.0000  -0.0048  -1.3676
    177    0.000002186362150    0.0  160.00      -9.602403315735      -9.602403315735      -9.600883291427      -9.602403238179   0.0000   0.0000  -0.0048  -1.3821
    178    0.000002433986731    0.0  163.52      -9.602392602036      -9.602392602036      -9.600839108657      -9.602403268954   0.0000   0.0000  -0.0048  -1.3965
    179    0.000002524742035    0.0  167.12      -9.602381305517      -9.602381305517      -9.600793621248      -9.602403264389   0.0000   0.0000  -0.0048  -1.4110
    180    0.000002494932218    0.0  170.79      -9.602369466192      -9.602369466192      -9.600746853641      -9.602403236009   0.0000   0.0000  -0.0049  -1.4256
    181    0.000002539696847    0.0  174.55      -9.602357297745      -9.602357297745      -9.600699026393      -9.602403232615   0.0000   0.0000  -0.0049  -1.4402
    182    0.000002726909466    0.0  178.38      -9.602344838093      -9.602344838093      -9.600650195670      -9.602403265371   0.0000   0.0000  -0.0049  -1.4548
    183    0.000002916911238    0.0  182.28      -9.602331867724      -9.602331867724      -9.600600155387      -9.602403290092   0.0000   0.0000  -0.0049  -1.4695
    184    0.000002995181979    0.0  186.25      -9.602318223191      -9.602318223191      -9.600548736437      -9.602403274138   0.0000   0.0000  -0.0049  -1.4842
    185    0.000003048919184    0.0  190.31      -9.602304028710      -9.602304028710      -9.600496032356      -9.602403246125   0.0000   0.0000  -0.0049  -1.4989
    186    0.000003211622135    0.0  194.44      -9.602289491418      -9.602289491418      -9.600442199965      -9.602403252637   0.0000   0.0000  -0.0049  -1.5137
    187    0.000003417535795    0.0  198.67      -9.602274570046      -9.602274570046      -9.600387142979      -9.602403287723   0.0000   0.0000  -0.0049  -1.5285
    188    0.000003455851989    0.0  202.98      -9.602259020276      -9.602259020276      -9.600330575941      -9.602403302492   0.0000   0.0000  -0.0050  -1.5433
    189    0.000003261991803    0.0  207.40      -9.602242747023      -9.602242747023      -9.600272391062      -9.602403280022   0.0000   0.0000  -0.0050  -1.5582
    190    0.000003017514295    0.0  211.90      -9.602225926948      -9.602225926948      -9.600212784976      -9.602403261272   0.0000   0.0000  -0.0050  -1.5731
    191    0.000002910376411    0.0  216.49      -9.602208715324      -9.602208715324      -9.600151957207      -9.602403282427   0.0000   0.0000  -0.0050  -1.5880
    192    0.000002911127103    0.0  221.16      -9.602190985229      -9.602190985229      -9.600089831156      -9.602403319202   0.0000   0.0000  -0.0050  -1.6030
    193    0.000002886001144    0.0  225.92      -9.602172497974      -9.602172497974      -9.600026203389      -9.602403323150   0.0000   0.0000  -0.0050  -1.6180
    194    0.000002851920732    0.0  230.74      -9.602153246435      -9.602153246435      -9.599961071230      -9.602403294915   0.0000   0.0000  -0.0050  -1.6329
    195    0.000002968341119    0.0  235.66      -9.602133448821      -9.602133448821      -9.599894622540      -9.602403283125   0.0000   0.0000  -0.0050  -1.6480
    196    0.000003273900596    0.0  240.65      -9.602113201377      -9.602113201377      -9.599826897919      -9.602403310822   0.0000   0.0000  -0.0050  -1.6630
    197    0.000003577740589    0.0  245.74      -9.602092315787      -9.602092315787      -9.599757647422      -9.602403341306   0.0000   0.0000  -0.0050  -1.6781
    198    0.000003689514371    0.0  250.93      -9.602070584627      -9.602070584627      -9.599686617445      -9.602403334837   0.0000   0.0000  -0.0050  -1.6931
    199    0.000003659835746    0.0  256.22      -9.602048068271      -9.602048068271      -9.599613852539      -9.602403309288   0.0000   0.0000  -0.0050  -1.7082

 * Physical Quantities at step:   200

   from rhoofr: total integrated electronic density
   in g-space =      8.000000   in r-space =     8.000000
     Total Electronic Pressure (GPa)       37.92664    200
     Pressure of Nuclei (GPa)             0.17588    200
     Pressure Total (GPa)            38.53906    200


                total energy =       -9.60202505533 Hartree a.u.
              kinetic energy =        4.08767 Hartree a.u.
        electrostatic energy =      -10.49728 Hartree a.u.
                         esr =        0.00000 Hartree a.u.
                       eself =       25.53231 Hartree a.u.
      pseudopotential energy =       -0.21290 Hartree a.u.
  n-l pseudopotential energy =        2.07894 Hartree a.u.
 exchange-correlation energy =       -5.05845 Hartree a.u.
           average potential =        0.00000 Hartree a.u.



   Eigenvalues (eV), kp =   1 , spin =  1

   -5.67   -0.00   -0.00   -0.00    0.00    0.00    0.00    6.16    6.25    6.50
 
 
   CELL_PARAMETERS
   -5.17500000    0.00000000   -5.17500000
    0.00000000    5.17500000    5.17500000
    5.17500000    5.17500000    0.00000000

   System Density [g/cm^3] :              2.2709396404


   System Volume [A.U.^3] :            277.1794687500


   Center of mass square displacement (a.u.):   0.000000

   Total stress (GPa)
       38.46561016         0.51379346         0.89305432
        0.51379347        38.63734859        -0.24433967
        0.89306365        -0.24434391        38.51422506
   ATOMIC_POSITIONS
   Si     -0.18644119683386E-01     0.25090270858373E-01     0.13421578242680E-01
   Si      0.25919856658478E+01     0.25635468741993E+01     0.25679883828931E+01
 
   ATOMIC_VELOCITIES
   Si     -0.79811021562144E-04     0.17065127252874E-03     0.11425566816656E-03
   Si      0.79811021562141E-04    -0.17065127252875E-03    -0.11425566816652E-03
 
   Forces acting on atoms (au):
   Si      0.63587412723853E-02    -0.13720446349006E-01    -0.89574630654630E-02
   Si     -0.64274948510056E-02     0.13961793223275E-01     0.92333614655895E-02
 


   Partial temperatures (for each ionic specie) 
   Species  Temp (K)   Mean Square Displacement (a.u.)
        1   2.62E+02     2.4807E-03
 
  nfi     ekinc              temph  tempp     etot                 enthal               econs                econt              vnhh    xnhh0   vnhp    xnhp0
    200    0.000003683253153    0.0  261.61      -9.602025055330      -9.602025055330      -9.599539657953      -9.602403398733   0.0000   0.0000  -0.0050  -1.7233

   writing restart file (with schema): ./tmp/silicon_52.save/
     restart      :      0.01s CPU      0.01s WALL (       2 calls)
    201    0.000003817326583    0.0  267.09      -9.602001374612      -9.602001374612      -9.599463900544      -9.602403434433   0.0000   0.0000  -0.0050  -1.7385
    202    0.000003937095055    0.0  272.66      -9.601976881908      -9.601976881908      -9.599386475161      -9.602403456393   0.0000   0.0000  -0.0050  -1.7536
    203    0.000003973203952    0.0  278.32      -9.601951443742      -9.601951443742      -9.599307267216      -9.602403438066   0.0000   0.0000  -0.0050  -1.7687
    204    0.000004046827314    0.0  284.07      -9.601925210656      -9.601925210656      -9.599226413833      -9.602403413346   0.0000   0.0000  -0.0050  -1.7839
    205    0.000004280898741    0.0  289.91      -9.601898374562      -9.601898374562      -9.599144063106      -9.602403425512   0.0000   0.0000  -0.0050  -1.7990
    206    0.000004573874645    0.0  295.86      -9.601870861068      -9.601870861068      -9.599060082368      -9.602403462377   0.0000   0.0000  -0.0051  -1.8142
    207    0.000004694632925    0.0  301.91      -9.601842419894      -9.601842419894      -9.598974172464      -9.602403475694   0.0000   0.0000  -0.0051  -1.8293
    208    0.000004578797031    0.0  308.06      -9.601812973456      -9.601812973456      -9.598886238291      -9.602403454712   0.0000   0.0000  -0.0050  -1.8445
    209    0.000004401726895    0.0  314.32      -9.601782696047      -9.601782696047      -9.598796478692      -9.602403441927   0.0000   0.0000  -0.0050  -1.8596
    210    0.000004333042884    0.0  320.68      -9.601751709797      -9.601751709797      -9.598705076753      -9.602403467628   0.0000   0.0000  -0.0050  -1.8747
    211    0.000004342409379    0.0  327.13      -9.601719865204      -9.601719865204      -9.598611959816      -9.602403503317   0.0000   0.0000  -0.0050  -1.8899
    212    0.000004328251495    0.0  333.67      -9.601686940578      -9.601686940578      -9.598516971302      -9.602403504732   0.0000   0.0000  -0.0050  -1.9050
    213    0.000004340515027    0.0  340.28      -9.601652954695      -9.601652954695      -9.598420159695      -9.602403478764   0.0000   0.0000  -0.0050  -1.9201
    214    0.000004531704177    0.0  346.97      -9.601618115748      -9.601618115748      -9.598321717627      -9.602403472708   0.0000   0.0000  -0.0050  -1.9352
    215    0.000004900748165    0.0  353.76      -9.601582484012      -9.601582484012      -9.598221653011      -9.602403502725   0.0000   0.0000  -0.0050  -1.9503
    216    0.000005228627270    0.0  360.63      -9.601545859328      -9.601545859328      -9.598119700429      -9.602403530315   0.0000   0.0000  -0.0050  -1.9654
    217    0.000005328235807    0.0  367.61      -9.601508060615      -9.601508060615      -9.598015630663      -9.602403521854   0.0000   0.0000  -0.0050  -1.9805
    218    0.000005260204228    0.0  374.68      -9.601469170033      -9.601469170033      -9.597909518912      -9.602403500059   0.0000   0.0000  -0.0050  -1.9955
    219    0.000005213627683    0.0  381.85      -9.601429372225      -9.601429372225      -9.597801592150      -9.602403509213   0.0000   0.0000  -0.0050  -2.0105
    220    0.000005243214934    0.0  389.11      -9.601388636412      -9.601388636412      -9.597691899874      -9.602403547426   0.0000   0.0000  -0.0050  -2.0255
    221    0.000005249944368    0.0  396.45      -9.601346726407      -9.601346726407      -9.597580297759      -9.602403568887   0.0000   0.0000  -0.0050  -2.0404
    222    0.000005205668775    0.0  403.85      -9.601303524152      -9.601303524152      -9.597466740774      -9.602403552491   0.0000   0.0000  -0.0050  -2.0554
    223    0.000005249415077    0.0  411.33      -9.601259177800      -9.601259177800      -9.597351409675      -9.602403532913   0.0000   0.0000  -0.0050  -2.0703
    224    0.000005489330317    0.0  418.86      -9.601213852980      -9.601213852980      -9.597234458960      -9.602403547863   0.0000   0.0000  -0.0049  -2.0851
    225    0.000005808322544    0.0  426.48      -9.601167464544      -9.601167464544      -9.597115765438      -9.602403582031   0.0000   0.0000  -0.0049  -2.1000
    226    0.000005982179214    0.0  434.16      -9.601119789171      -9.601119789171      -9.596995070988      -9.602403592032   0.0000   0.0000  -0.0049  -2.1147
    227    0.000005956850499    0.0  441.92      -9.601070779313      -9.601070779313      -9.596872327219      -9.602403573177   0.0000   0.0000  -0.0049  -2.1295
    228    0.000005894180497    0.0  449.75      -9.601020599255      -9.601020599255      -9.596747749290      -9.602403566269   0.0000   0.0000  -0.0049  -2.1442
    229    0.000005937778951    0.0  457.64      -9.600969333221      -9.600969333221      -9.596621520362      -9.602403594703   0.0000   0.0000  -0.0049  -2.1588
    230    0.000006053675392    0.0  465.58      -9.600916815167      -9.600916815167      -9.596493596752      -9.602403627955   0.0000   0.0000  -0.0049  -2.1734
    231    0.000006162871509    0.0  473.55      -9.600862842801      -9.600862842801      -9.596363885929      -9.602403626913   0.0000   0.0000  -0.0048  -2.1880
    232    0.000006327428711    0.0  481.55      -9.600807453658      -9.600807453658      -9.596232490184      -9.602403602355   0.0000   0.0000  -0.0048  -2.2025
    233    0.000006675331223    0.0  489.58      -9.600750846449      -9.600750846449      -9.596099613515      -9.602403598522   0.0000   0.0000  -0.0048  -2.2169
    234    0.000007163479714    0.0  497.64      -9.600693065837      -9.600693065837      -9.595965257183      -9.602403627235   0.0000   0.0000  -0.0048  -2.2313
    235    0.000007546717135    0.0  505.74      -9.600633921630      -9.600633921630      -9.595829171873      -9.602403651922   0.0000   0.0000  -0.0048  -2.2456
    236    0.000007630220665    0.0  513.88      -9.600573255636      -9.600573255636      -9.595691167095      -9.602403644405   0.0000   0.0000  -0.0047  -2.2599
    237    0.000007466760374    0.0  522.06      -9.600511148000      -9.600511148000      -9.595551352458      -9.602403627610   0.0000   0.0000  -0.0047  -2.2741
    238    0.000007241087301    0.0  530.27      -9.600447755275      -9.600447755275      -9.595409988380      -9.602403639960   0.0000   0.0000  -0.0047  -2.2882
    239    0.000007035003950    0.0  538.48      -9.600383033697      -9.600383033697      -9.595267193861      -9.602403676251   0.0000   0.0000  -0.0047  -2.3022
    240    0.000006813545086    0.0  546.69      -9.600316771413      -9.600316771413      -9.595122940706      -9.602403694704   0.0000   0.0000  -0.0046  -2.3162
    241    0.000006610621207    0.0  554.88      -9.600248881439      -9.600248881439      -9.594977301229      -9.602403679232   0.0000   0.0000  -0.0046  -2.3301
    242    0.000006583453872    0.0  563.03      -9.600179512200      -9.600179512200      -9.594830524869      -9.602403662926   0.0000   0.0000  -0.0046  -2.3439
    243    0.000006817456765    0.0  571.13      -9.600108808987      -9.600108808987      -9.594682791233      -9.602403678062   0.0000   0.0000  -0.0046  -2.3576
    244    0.000007166601768    0.0  579.20      -9.600036684410      -9.600036684410      -9.594534001250      -9.602403708508   0.0000   0.0000  -0.0045  -2.3713
    245    0.000007388812520    0.0  587.24      -9.599962937846      -9.599962937846      -9.594383937723      -9.602403715591   0.0000   0.0000  -0.0045  -2.3849
    246    0.000007412129211    0.0  595.23      -9.599887537242      -9.599887537242      -9.594232590998      -9.602403697145   0.0000   0.0000  -0.0045  -2.3983
    247    0.000007377253761    0.0  603.18      -9.599810638387      -9.599810638387      -9.594080205712      -9.602403690339   0.0000   0.0000  -0.0044  -2.4117
    248    0.000007425961238    0.0  611.06      -9.599732319508      -9.599732319508      -9.593927013933      -9.602403714747   0.0000   0.0000  -0.0044  -2.4250
    249    0.000007556493579    0.0  618.85      -9.599652438264      -9.599652438264      -9.593773061509      -9.602403742172   0.0000   0.0000  -0.0044  -2.4382
    250    0.000007731208018    0.0  626.55      -9.599570828707      -9.599570828707      -9.593618357734      -9.602403738614   0.0000   0.0000  -0.0043  -2.4513
    251    0.000008022297225    0.0  634.13      -9.599487540237      -9.599487540237      -9.593463070606      -9.602403714965   0.0000   0.0000  -0.0043  -2.4643
    252    0.000008529593474    0.0  641.58      -9.599402757569      -9.599402757569      -9.593307426193      -9.602403710507   0.0000   0.0000  -0.0043  -2.4771
    253    0.000009173298914    0.0  648.93      -9.599316520654      -9.599316520654      -9.593151441161      -9.602403734660   0.0000   0.0000  -0.0042  -2.4899
    254    0.000009686275586    0.0  656.16      -9.599228661348      -9.599228661348      -9.592994901294      -9.602403754369   0.0000   0.0000  -0.0042  -2.5026
    255    0.000009859856784    0.0  663.27      -9.599139045846      -9.599139045846      -9.592837658261      -9.602403744956   0.0000   0.0000  -0.0042  -2.5152
    256    0.000009731515741    0.0  670.27      -9.599047756620      -9.599047756620      -9.592679855619      -9.602403727139   0.0000   0.0000  -0.0041  -2.5276
    257    0.000009483635979    0.0  677.14      -9.598954946311      -9.598954946311      -9.592521797430      -9.602403734926   0.0000   0.0000  -0.0041  -2.5399
    258    0.000009226468366    0.0  683.85      -9.598860592084      -9.598860592084      -9.592363680878      -9.602403763549   0.0000   0.0000  -0.0041  -2.5521
    259    0.000008969287464    0.0  690.38      -9.598764524051      -9.598764524051      -9.592205574711      -9.602403776015   0.0000   0.0000  -0.0040  -2.5642
    260    0.000008766296310    0.0  696.71      -9.598666683285      -9.598666683285      -9.592047619572      -9.602403758157   0.0000   0.0000  -0.0040  -2.5762
    261    0.000008752673225    0.0  702.82      -9.598567218016      -9.598567218016      -9.591890083076      -9.602403739450   0.0000   0.0000  -0.0039  -2.5880
    262    0.000008971400658    0.0  708.72      -9.598466270793      -9.598466270793      -9.591733140182      -9.602403748795   0.0000   0.0000  -0.0039  -2.5998
    263    0.000009243842356    0.0  714.40      -9.598363773775      -9.598363773775      -9.591576699334      -9.602403771913   0.0000   0.0000  -0.0038  -2.6114
    264    0.000009311361343    0.0  719.86      -9.598259556395      -9.598259556395      -9.591420565797      -9.602403773787   0.0000   0.0000  -0.0038  -2.6228
    265    0.000009095540535    0.0  725.11      -9.598153602559      -9.598153602559      -9.591264755516      -9.602403751705   0.0000   0.0000  -0.0038  -2.6342
    266    0.000008749640217    0.0  730.13      -9.598046074720      -9.598046074720      -9.591109552008      -9.602403739159   0.0000   0.0000  -0.0037  -2.6454
    267    0.000008462215417    0.0  734.89      -9.597937074736      -9.597937074736      -9.590955261042      -9.602403755217   0.0000   0.0000  -0.0037  -2.6564
    268    0.000008301104917    0.0  739.38      -9.597826503763      -9.597826503763      -9.590802026717      -9.602403775604   0.0000   0.0000  -0.0036  -2.6673
    269    0.000008281592637    0.0  743.58      -9.597714229996      -9.597714229996      -9.590649935326      -9.602403768681   0.0000   0.0000  -0.0036  -2.6781
    270    0.000008484678321    0.0  747.45      -9.597600309290      -9.597600309290      -9.590499178822      -9.602403742200   0.0000   0.0000  -0.0035  -2.6888
    271    0.000008986709344    0.0  751.01      -9.597484926193      -9.597484926193      -9.590349969939      -9.602403731119   0.0000   0.0000  -0.0035  -2.6993
    272    0.000009680935314    0.0  754.26      -9.597368143975      -9.597368143975      -9.590202309212      -9.602403745315   0.0000   0.0000  -0.0034  -2.7097
    273    0.000010279609062    0.0  757.21      -9.597249838015      -9.597249838015      -9.590055971822      -9.602403755657   0.0000   0.0000  -0.0034  -2.7199
    274    0.000010551911710    0.0  759.87      -9.597129910744      -9.597129910744      -9.589910790300      -9.602403738785   0.0000   0.0000  -0.0033  -2.7300
    275    0.000010513744756    0.0  762.24      -9.597008464820      -9.597008464820      -9.589766881308      -9.602403712887   0.0000   0.0000  -0.0033  -2.7400
    276    0.000010342390247    0.0  764.30      -9.596885675802      -9.596885675802      -9.589624535000      -9.602403710615   0.0000   0.0000  -0.0032  -2.7498
    277    0.000010161876036    0.0  766.03      -9.596761557035      -9.596761557035      -9.589483952571      -9.602403729756   0.0000   0.0000  -0.0032  -2.7594
    278    0.000009991337991    0.0  767.41      -9.596635970702      -9.596635970702      -9.589345197595      -9.602403735683   0.0000   0.0000  -0.0031  -2.7689
    279    0.000009870340526    0.0  768.44      -9.596508869578      -9.596508869578      -9.589208371408      -9.602403712136   0.0000   0.0000  -0.0031  -2.7783
    280    0.000009904091137    0.0  769.09      -9.596380408312      -9.596380408312      -9.589073680144      -9.602403684724   0.0000   0.0000  -0.0030  -2.7875
    281    0.000010115740096    0.0  769.39      -9.596250757983      -9.596250757983      -9.588941246587      -9.602403682428   0.0000   0.0000  -0.0030  -2.7966
    282    0.000010325277065    0.0  769.33      -9.596119900607      -9.596119900607      -9.588810944954      -9.602403694909   0.0000   0.0000  -0.0030  -2.8055
    283    0.000010278519822    0.0  768.93      -9.595987708611      -9.595987708611      -9.588682546294      -9.602403689247   0.0000   0.0000  -0.0029  -2.8143
    284    0.000009900826512    0.0  768.19      -9.595854187152      -9.595854187152      -9.588556023521      -9.602403660445   0.0000   0.0000  -0.0029  -2.8229
    285    0.000009359732726    0.0  767.11      -9.595719514766      -9.595719514766      -9.588431623667      -9.602403639504   0.0000   0.0000  -0.0028  -2.8314
    286    0.000008874861194    0.0  765.67      -9.595583822429      -9.595583822429      -9.588309632605      -9.602403646707   0.0000   0.0000  -0.0028  -2.8398
    287    0.000008544706147    0.0  763.85      -9.595447045157      -9.595447045157      -9.588190171204      -9.602403660215   0.0000   0.0000  -0.0027  -2.8480
    288    0.000008392104357    0.0  761.63      -9.595309072266      -9.595309072266      -9.588073271888      -9.602403647490   0.0000   0.0000  -0.0027  -2.8560
    289    0.000008483244739    0.0  759.01      -9.595169973571      -9.595169973571      -9.587959044035      -9.602403613059   0.0000   0.0000  -0.0026  -2.8639
    290    0.000008877733665    0.0  756.00      -9.595029962193      -9.595029962193      -9.587847615087      -9.602403591404   0.0000   0.0000  -0.0026  -2.8717
    291    0.000009461081714    0.0  752.62      -9.594889146915      -9.594889146915      -9.587738910168      -9.602403595674   0.0000   0.0000  -0.0025  -2.8793
    292    0.000009939062795    0.0  748.89      -9.594747441847      -9.594747441847      -9.587632627014      -9.602403598925   0.0000   0.0000  -0.0025  -2.8868
    293    0.000010071388000    0.0  744.83      -9.594604766149      -9.594604766149      -9.587528511765      -9.602403575767   0.0000   0.0000  -0.0024  -2.8942
    294    0.000009874841289    0.0  740.45      -9.594461232725      -9.594461232725      -9.587426602672      -9.602403541544   0.0000   0.0000  -0.0024  -2.9014
    295    0.000009549566624    0.0  735.75      -9.594317042626      -9.594317042626      -9.587327135486      -9.602403529718   0.0000   0.0000  -0.0023  -2.9084
    296    0.000009251820067    0.0  730.70      -9.594172245622      -9.594172245622      -9.587230266767      -9.602403541073   0.0000   0.0000  -0.0023  -2.9154
    297    0.000009017278806    0.0  725.31      -9.594026730816      -9.594026730816      -9.587135995264      -9.602403541304   0.0000   0.0000  -0.0022  -2.9222
    298    0.000008879301688    0.0  719.56      -9.593880466057      -9.593880466057      -9.587044330084      -9.602403511429   0.0000   0.0000  -0.0022  -2.9288
    299    0.000008929257415    0.0  713.47      -9.593733627813      -9.593733627813      -9.586955377996      -9.602403475909   0.0000   0.0000  -0.0022  -2.9354

 * Physical Quantities at step:   300

   from rhoofr: total integrated electronic density
   in g-space =      8.000000   in r-space =     8.000000
     Total Electronic Pressure (GPa)       38.69287    300
     Pressure of Nuclei (GPa)             0.47533    300
     Pressure Total (GPa)            39.57972    300


                total energy =       -9.59358642278 Hartree a.u.
              kinetic energy =        4.09230 Hartree a.u.
        electrostatic energy =      -10.49611 Hartree a.u.
                         esr =        0.00000 Hartree a.u.
                       eself =       25.53231 Hartree a.u.
      pseudopotential energy =       -0.21344 Hartree a.u.
  n-l pseudopotential energy =        2.08196 Hartree a.u.
 exchange-correlation energy =       -5.05830 Hartree a.u.
           average potential =        0.00000 Hartree a.u.



   Eigenvalues (eV), kp =   1 , spin =  1

   -5.70   -0.00   -0.00   -0.00    0.00    0.00    0.00    5.75    6.09    7.12
 
 
   CELL_PARAMETERS
   -5.17500000    0.00000000   -5.17500000
    0.00000000    5.17500000    5.17500000
    5.17500000    5.17500000    0.00000000

   System Density [g/cm^3] :              2.2709396404


   System Volume [A.U.^3] :            277.1794687500


   Center of mass square displacement (a.u.):   0.000000

   Total stress (GPa)
       39.79901163         2.02954628         3.58508326
        2.02954628        39.30182112        -0.94055975
        3.58512051        -0.94057618        39.63831536
   ATOMIC_POSITIONS
   Si     -0.54752073346070E-01     0.99966888508288E-01     0.64076048995581E-01
   Si      0.26280936195105E+01     0.24886702565494E+01     0.25173339121402E+01
 
   ATOMIC_VELOCITIES
   Si     -0.14042248383426E-03     0.27481944396019E-03     0.18963259614873E-03
   Si      0.14042248383429E-03    -0.27481944396010E-03    -0.18963259614872E-03
 
   Forces acting on atoms (au):
   Si      0.21960515443414E-01    -0.54383574198272E-01    -0.34949172949132E-01
   Si     -0.22012652323540E-01     0.54222938903706E-01     0.34710039714672E-01
 


   Partial temperatures (for each ionic specie) 
   Species  Temp (K)   Mean Square Displacement (a.u.)
        1   7.07E+02     2.1653E-02
 
  nfi     ekinc              temph  tempp     etot                 enthal               econs                econt              vnhh    xnhh0   vnhp    xnhp0
    300    0.000009180208140    0.0  707.05      -9.593586422784      -9.593586422784      -9.586869169443      -9.602403466217   0.0000   0.0000  -0.0021  -2.9418

   writing restart file (with schema): ./tmp/silicon_52.save/
     restart      :      0.01s CPU      0.01s WALL (       3 calls)
    301    0.000009439400062    0.0  700.32      -9.593438863843      -9.593438863843      -9.586785483714      -9.602403474220   0.0000   0.0000  -0.0021  -2.9481
    302    0.000009431105927    0.0  693.32      -9.593290833546      -9.593290833546      -9.586703985046      -9.602403465268   0.0000   0.0000  -0.0020  -2.9542
    303    0.000009061953177    0.0  686.05      -9.593142339166      -9.593142339166      -9.586624542008      -9.602403431240   0.0000   0.0000  -0.0020  -2.9602
    304    0.000008498599555    0.0  678.52      -9.592993576447      -9.592993576447      -9.586547319479      -9.602403403399   0.0000   0.0000  -0.0020  -2.9661
    305    0.000007971729653    0.0  670.72      -9.592844707873      -9.592844707873      -9.586472536750      -9.602403405141   0.0000   0.0000  -0.0019  -2.9719
    306    0.000007581922543    0.0  662.65      -9.592695692844      -9.592695692844      -9.586400237798      -9.602403415671   0.0000   0.0000  -0.0019  -2.9776
    307    0.000007338762596    0.0  654.29      -9.592546430557      -9.592546430557      -9.586330360325      -9.602403400002   0.0000   0.0000  -0.0018  -2.9832
    308    0.000007296531968    0.0  645.66      -9.592397002939      -9.592397002939      -9.586262922737      -9.602403360982   0.0000   0.0000  -0.0018  -2.9886
    309    0.000007519001543    0.0  636.78      -9.592247648245      -9.592247648245      -9.586197983787      -9.602403335138   0.0000   0.0000  -0.0018  -2.9940
    310    0.000007905539489    0.0  627.66      -9.592098497814      -9.592098497814      -9.586135413371      -9.602403338090   0.0000   0.0000  -0.0017  -2.9992
    311    0.000008173174449    0.0  618.35      -9.591949467531      -9.591949467531      -9.586074851426      -9.602403341468   0.0000   0.0000  -0.0017  -3.0044
    312    0.000008094395256    0.0  608.86      -9.591800467676      -9.591800467676      -9.586015989775      -9.602403316294   0.0000   0.0000  -0.0017  -3.0094
    313    0.000007712175663    0.0  599.21      -9.591651617642      -9.591651617642      -9.585958832842      -9.602403277495   0.0000   0.0000  -0.0016  -3.0143
    314    0.000007259618464    0.0  589.40      -9.591503144067      -9.591503144067      -9.585903596606      -9.602403261929   0.0000   0.0000  -0.0016  -3.0192
    315    0.000006907931756    0.0  579.42      -9.591355118007      -9.591355118007      -9.585850401638      -9.602403272524   0.0000   0.0000  -0.0016  -3.0240
    316    0.000006677561631    0.0  569.26      -9.591207430748      -9.591207430748      -9.585799179281      -9.602403273011   0.0000   0.0000  -0.0015  -3.0286
    317    0.000006572909474    0.0  558.94      -9.591060047193      -9.591060047193      -9.585749860088      -9.602403241983   0.0000   0.0000  -0.0015  -3.0332
    318    0.000006665254632    0.0  548.47      -9.590913152632      -9.590913152632      -9.585702488223      -9.602403205070   0.0000   0.0000  -0.0015  -3.0377
    319    0.000006958771175    0.0  537.86      -9.590766965630      -9.590766965630      -9.585657048198      -9.602403196340   0.0000   0.0000  -0.0015  -3.0422
    320    0.000007253041353    0.0  527.16      -9.590621495160      -9.590621495160      -9.585613275666      -9.602403206874   0.0000   0.0000  -0.0014  -3.0465
    321    0.000007268043641    0.0  516.38      -9.590476609527      -9.590476609527      -9.585570796404      -9.602403198478   0.0000   0.0000  -0.0014  -3.0508
    322    0.000006921317279    0.0  505.54      -9.590332316523      -9.590332316523      -9.585529462797      -9.602403162222   0.0000   0.0000  -0.0014  -3.0550
    323    0.000006400760680    0.0  494.65      -9.590188833006      -9.590188833006      -9.585489442223      -9.602403133023   0.0000   0.0000  -0.0014  -3.0592
    324    0.000005942551159    0.0  483.70      -9.590046337484      -9.590046337484      -9.585450943500      -9.602403137302   0.0000   0.0000  -0.0014  -3.0633
    325    0.000005621306331    0.0  472.70      -9.589904779326      -9.589904779326      -9.585413966918      -9.602403152422   0.0000   0.0000  -0.0013  -3.0673
    326    0.000005407241145    0.0  461.63      -9.589764035355      -9.589764035355      -9.585378394408      -9.602403139790   0.0000   0.0000  -0.0013  -3.0713
    327    0.000005333037771    0.0  450.50      -9.589624178857      -9.589624178857      -9.585344213413      -9.602403102370   0.0000   0.0000  -0.0013  -3.0752
    328    0.000005467332762    0.0  439.34      -9.589485452471      -9.589485452471      -9.585311484846      -9.602403079802   0.0000   0.0000  -0.0013  -3.0791
    329    0.000005726347561    0.0  428.18      -9.589347982520      -9.589347982520      -9.585280094107      -9.602403088252   0.0000   0.0000  -0.0013  -3.0829
    330    0.000005847098761    0.0  417.03      -9.589211665932      -9.589211665932      -9.585249699893      -9.602403096072   0.0000   0.0000  -0.0013  -3.0867
    331    0.000005630910018    0.0  405.92      -9.589076402541      -9.589076402541      -9.585220026743      -9.602403072443   0.0000   0.0000  -0.0012  -3.0905
    332    0.000005154958844    0.0  394.84      -9.588942322085      -9.588942322085      -9.585191125138      -9.602403035246   0.0000   0.0000  -0.0012  -3.0942
    333    0.000004667088919    0.0  383.82      -9.588809660946      -9.588809660946      -9.585163240811      -9.602403024843   0.0000   0.0000  -0.0012  -3.0979
    334    0.000004315253513    0.0  372.82      -9.588678474596      -9.588678474596      -9.585136483360      -9.602403042774   0.0000   0.0000  -0.0012  -3.1016
    335    0.000004076173785    0.0  361.86      -9.588548623785      -9.588548623785      -9.585110751709      -9.602403048507   0.0000   0.0000  -0.0012  -3.1053
    336    0.000003927929405    0.0  350.94      -9.588420058720      -9.588420058720      -9.585085966924      -9.602403019998   0.0000   0.0000  -0.0012  -3.1089
    337    0.000003948419377    0.0  340.07      -9.588292970383      -9.588292970383      -9.585062203140      -9.602402986741   0.0000   0.0000  -0.0012  -3.1125
    338    0.000004164150788    0.0  329.26      -9.588167575499      -9.588167575499      -9.585039490986      -9.602402984957   0.0000   0.0000  -0.0012  -3.1161
    339    0.000004394835742    0.0  318.54      -9.588043857565      -9.588043857565      -9.585017606905      -9.602403002627   0.0000   0.0000  -0.0012  -3.1197
    340    0.000004381579973    0.0  307.93      -9.587921656892      -9.587921656892      -9.584996219866      -9.602402997947   0.0000   0.0000  -0.0012  -3.1233
    341    0.000004068068853    0.0  297.43      -9.587800975732      -9.587800975732      -9.584975237059      -9.602402963455   0.0000   0.0000  -0.0012  -3.1269
    342    0.000003654508636    0.0  287.06      -9.587682037210      -9.587682037210      -9.584954870549      -9.602402938215   0.0000   0.0000  -0.0012  -3.1305
    343    0.000003352237725    0.0  276.80      -9.587565008910      -9.587565008910      -9.584935333399      -9.602402948896   0.0000   0.0000  -0.0012  -3.1341
    344    0.000003183094489    0.0  266.64      -9.587449811395      -9.587449811395      -9.584916598373      -9.602402968953   0.0000   0.0000  -0.0012  -3.1377
    345    0.000003075284909    0.0  256.60      -9.587336303818      -9.587336303818      -9.584898533272      -9.602402958308   0.0000   0.0000  -0.0012  -3.1413
    346    0.000003054766496    0.0  246.66      -9.587224564457      -9.587224564457      -9.584881152243      -9.602402923760   0.0000   0.0000  -0.0012  -3.1449
    347    0.000003206144614    0.0  236.86      -9.587114836828      -9.587114836828      -9.584864565490      -9.602402908376   0.0000   0.0000  -0.0012  -3.1485
    348    0.000003462524246    0.0  227.20      -9.587007219599      -9.587007219599      -9.584848702984      -9.602402925793   0.0000   0.0000  -0.0012  -3.1522
    349    0.000003579411489    0.0  217.71      -9.586901570914      -9.586901570914      -9.584833267359      -9.602402939369   0.0000   0.0000  -0.0012  -3.1559
    350    0.000003387519856    0.0  208.38      -9.586797775198      -9.586797775198      -9.584818042885      -9.602402918193   0.0000   0.0000  -0.0012  -3.1596
    351    0.000002989421018    0.0  199.24      -9.586695969697      -9.586695969697      -9.584803140231      -9.602402884810   0.0000   0.0000  -0.0013  -3.1633
    352    0.000002623096673    0.0  190.26      -9.586596387297      -9.586596387297      -9.584788826774      -9.602402881589   0.0000   0.0000  -0.0013  -3.1671
    353    0.000002387465892    0.0  181.45      -9.586499054611      -9.586499054611      -9.584775188015      -9.602402906375   0.0000   0.0000  -0.0013  -3.1709
    354    0.000002208277417    0.0  172.80      -9.586403805013      -9.586403805013      -9.584762096229      -9.602402915319   0.0000   0.0000  -0.0013  -3.1747
    355    0.000002047946409    0.0  164.32      -9.586310587228      -9.586310587228      -9.584749486046      -9.602402888981   0.0000   0.0000  -0.0013  -3.1786
    356    0.000002002225587    0.0  156.01      -9.586219598819      -9.586219598819      -9.584737479702      -9.602402861439   0.0000   0.0000  -0.0013  -3.1825
    357    0.000002124287264    0.0  147.88      -9.586131038840      -9.586131038840      -9.584726158447      -9.602402868115   0.0000   0.0000  -0.0013  -3.1865
    358    0.000002261746251    0.0  139.94      -9.586044854202      -9.586044854202      -9.584715345235      -9.602402891744   0.0000   0.0000  -0.0013  -3.1905
    359    0.000002194010813    0.0  132.21      -9.585960866103      -9.585960866103      -9.584704768538      -9.602402888862   0.0000   0.0000  -0.0014  -3.1946
    360    0.000001903389070    0.0  124.70      -9.585879085723      -9.585879085723      -9.584694400432      -9.602402856561   0.0000   0.0000  -0.0014  -3.1987
    361    0.000001593871940    0.0  117.39      -9.585799739882      -9.585799739882      -9.584684480833      -9.602402837624   0.0000   0.0000  -0.0014  -3.2029
    362    0.000001429290357    0.0  110.29      -9.585722968090      -9.585722968090      -9.584675191175      -9.602402855796   0.0000   0.0000  -0.0014  -3.2071
    363    0.000001365454514    0.0  103.38      -9.585648652692      -9.585648652692      -9.584666450307      -9.602402879531   0.0000   0.0000  -0.0014  -3.2114
    364    0.000001295397771    0.0   96.68      -9.585576641368      -9.585576641368      -9.584658107036      -9.602402869533   0.0000   0.0000  -0.0015  -3.2157
    365    0.000001253613167    0.0   90.19      -9.585507023324      -9.585507023324      -9.584650203126      -9.602402837967   0.0000   0.0000  -0.0015  -3.2202
    366    0.000001352334789    0.0   83.91      -9.585440037869      -9.585440037869      -9.584642890020      -9.602402829382   0.0000   0.0000  -0.0015  -3.2246
    367    0.000001553800483    0.0   77.85      -9.585375753544      -9.585375753544      -9.584636132602      -9.602402852583   0.0000   0.0000  -0.0015  -3.2292
    368    0.000001650869587    0.0   72.03      -9.585314005770      -9.585314005770      -9.584629676378      -9.602402867324   0.0000   0.0000  -0.0015  -3.2338
    369    0.000001517558147    0.0   66.45      -9.585254687721      -9.585254687721      -9.584623359897      -9.602402846096   0.0000   0.0000  -0.0016  -3.2385
    370    0.000001272302396    0.0   61.12      -9.585197951284      -9.585197951284      -9.584617320819      -9.602402816689   0.0000   0.0000  -0.0016  -3.2432
    371    0.000001112400851    0.0   56.02      -9.585144012073      -9.585144012073      -9.584611788793      -9.602402820403   0.0000   0.0000  -0.0016  -3.2481
    372    0.000001060327003    0.0   51.16      -9.585092855842      -9.585092855842      -9.584606769140      -9.602402849320   0.0000   0.0000  -0.0016  -3.2530
    373    0.000000985011670    0.0   46.55      -9.585044294136      -9.585044294136      -9.584602075798      -9.602402858097   0.0000   0.0000  -0.0017  -3.2580
    374    0.000000841866612    0.0   42.17      -9.584998285377      -9.584998285377      -9.584597639455      -9.602402832372   0.0000   0.0000  -0.0017  -3.2630
    375    0.000000752186434    0.0   38.04      -9.584955033616      -9.584955033616      -9.584593607678      -9.602402809871   0.0000   0.0000  -0.0017  -3.2682
[...]
   3918    0.000010115533899    0.0  634.73      -9.598919694113      -9.598919694113      -9.592889442045      -9.602403682728   0.0000   0.0000   0.0048  -2.7632
   3919    0.000009885602181    0.0  625.70      -9.599005428557      -9.599005428557      -9.593061012696      -9.602403668969   0.0000   0.0000   0.0048  -2.7489
   3920    0.000009471520573    0.0  616.65      -9.599089529906      -9.599089529906      -9.593231132802      -9.602403655823   0.0000   0.0000   0.0048  -2.7344
   3921    0.000009030875147    0.0  607.57      -9.599172065901      -9.599172065901      -9.593399896557      -9.602403653345   0.0000   0.0000   0.0049  -2.7199
   3922    0.000008694384432    0.0  598.46      -9.599253030842      -9.599253030842      -9.593567356381      -9.602403656655   0.0000   0.0000   0.0049  -2.7053
   3923    0.000008528881368    0.0  589.33      -9.599332376035      -9.599332376035      -9.593733492169      -9.602403652281   0.0000   0.0000   0.0049  -2.6905
   3924    0.000008560758562    0.0  580.17      -9.599410101887      -9.599410101887      -9.593898255179      -9.602403637036   0.0000   0.0000   0.0050  -2.6757
   3925    0.000008774160532    0.0  571.00      -9.599486277853      -9.599486277853      -9.594061573050      -9.602403622257   0.0000   0.0000   0.0050  -2.6608
   3926    0.000009068662767    0.0  561.83      -9.599560961196      -9.599560961196      -9.594223293324      -9.602403617118   0.0000   0.0000   0.0050  -2.6458
   3927    0.000009263100735    0.0  552.71      -9.599634134629      -9.599634134629      -9.594383175359      -9.602403615283   0.0000   0.0000   0.0050  -2.6307
   3928    0.000009198251601    0.0  543.63      -9.599705757206      -9.599705757206      -9.594541002487      -9.602403604697   0.0000   0.0000   0.0051  -2.6155
   3929    0.000008854488738    0.0  534.62      -9.599775855942      -9.599775855942      -9.594696716502      -9.602403586356   0.0000   0.0000   0.0051  -2.6003
   3930    0.000008357430326    0.0  525.67      -9.599844521494      -9.599844521494      -9.594850420267      -9.602403574062   0.0000   0.0000   0.0051  -2.5850
   3931    0.000007869666770    0.0  516.77      -9.599911809055      -9.599911809055      -9.595002247095      -9.602403574607   0.0000   0.0000   0.0051  -2.5696
   3932    0.000007494832631    0.0  507.92      -9.599977687022      -9.599977687022      -9.595152253019      -9.602403577209   0.0000   0.0000   0.0052  -2.5542
   3933    0.000007277804519    0.0  499.10      -9.600042110183      -9.600042110183      -9.595300432372      -9.602403568400   0.0000   0.0000   0.0052  -2.5386
   3934    0.000007240977605    0.0  490.33      -9.600105112069      -9.600105112069      -9.595446775215      -9.602403551196   0.0000   0.0000   0.0052  -2.5231
   3935    0.000007364067697    0.0  481.61      -9.600166780744      -9.600166780744      -9.595591244896      -9.602403540304   0.0000   0.0000   0.0052  -2.5074
   3936    0.000007535947497    0.0  472.97      -9.600227153713      -9.600227153713      -9.595733709864      -9.602403540065   0.0000   0.0000   0.0052  -2.4917
   3937    0.000007588185377    0.0  464.42      -9.600286189805      -9.600286189805      -9.595873971242      -9.602403537891   0.0000   0.0000   0.0053  -2.4760
   3938    0.000007421555262    0.0  455.97      -9.600343863356      -9.600343863356      -9.596011907469      -9.602403523482   0.0000   0.0000   0.0053  -2.4602
   3939    0.000007092351133    0.0  447.63      -9.600400240934      -9.600400240934      -9.596147574824      -9.602403505329   0.0000   0.0000   0.0053  -2.4444
   3940    0.000006753802949    0.0  439.38      -9.600455421228      -9.600455421228      -9.596281134627      -9.602403499052   0.0000   0.0000   0.0053  -2.4285
   3941    0.000006524547745    0.0  431.21      -9.600509421707      -9.600509421707      -9.596412696595      -9.602403503987   0.0000   0.0000   0.0053  -2.4125
   3942    0.000006435506821    0.0  423.13      -9.600562180379      -9.600562180379      -9.596542265481      -9.602403503118   0.0000   0.0000   0.0053  -2.3966
   3943    0.000006479155358    0.0  415.12      -9.600613674053      -9.600613674053      -9.596669816196      -9.602403487497   0.0000   0.0000   0.0053  -2.3805
   3944    0.000006642797725    0.0  407.21      -9.600663979551      -9.600663979551      -9.596795342463      -9.602403469278   0.0000   0.0000   0.0054  -2.3645
   3945    0.000006860539309    0.0  399.39      -9.600713186158      -9.600713186158      -9.596918792834      -9.602403463520   0.0000   0.0000   0.0054  -2.3484
   3946    0.000006979216625    0.0  391.70      -9.600761290199      -9.600761290199      -9.597040015109      -9.602403465613   0.0000   0.0000   0.0054  -2.3323
   3947    0.000006844276639    0.0  384.13      -9.600808232432      -9.600808232432      -9.597158848804      -9.602403458477   0.0000   0.0000   0.0054  -2.3162
   3948    0.000006438842270    0.0  376.69      -9.600854024570      -9.600854024570      -9.597275288760      -9.602403439236   0.0000   0.0000   0.0054  -2.3000
   3949    0.000005907360678    0.0  369.38      -9.600898772322      -9.600898772322      -9.597389511631      -9.602403424885   0.0000   0.0000   0.0054  -2.2838
   3950    0.000005429732226    0.0  362.18      -9.600942553757      -9.600942553757      -9.597501722612      -9.602403427302   0.0000   0.0000   0.0054  -2.2676
   3951    0.000005100190946    0.0  355.07      -9.600985332152      -9.600985332152      -9.597612014660      -9.602403434644   0.0000   0.0000   0.0054  -2.2514
   3952    0.000004937668375    0.0  348.05      -9.601027037011      -9.601027037011      -9.597720396090      -9.602403427881   0.0000   0.0000   0.0054  -2.2351
   3953    0.000004956388116    0.0  341.12      -9.601067696032      -9.601067696032      -9.597826891095      -9.602403408631   0.0000   0.0000   0.0054  -2.2188
   3954    0.000005154239079    0.0  334.29      -9.601107420451      -9.601107420451      -9.597931528094      -9.602403396547   0.0000   0.0000   0.0054  -2.2026
   3955    0.000005434801633    0.0  327.57      -9.601146263991      -9.601146263991      -9.598034234091      -9.602403399655   0.0000   0.0000   0.0054  -2.1863
   3956    0.000005616247986    0.0  320.97      -9.601184167808      -9.601184167808      -9.598134832007      -9.602403402215   0.0000   0.0000   0.0054  -2.1700
   3957    0.000005571895899    0.0  314.50      -9.601221076953      -9.601221076953      -9.598233204314      -9.602403388860   0.0000   0.0000   0.0054  -2.1537
   3958    0.000005344224734    0.0  308.16      -9.601257053773      -9.601257053773      -9.598329428944      -9.602403368706   0.0000   0.0000   0.0054  -2.1374
   3959    0.000005086153702    0.0  301.93      -9.601292214597      -9.601292214597      -9.598423705120      -9.602403362323   0.0000   0.0000   0.0054  -2.1211
   3960    0.000004908002110    0.0  295.82      -9.601326582521      -9.601326582521      -9.598516167476      -9.602403370524   0.0000   0.0000   0.0054  -2.1047
   3961    0.000004822636255    0.0  289.80      -9.601360079690      -9.601360079690      -9.598606829014      -9.602403372375   0.0000   0.0000   0.0054  -2.0884
   3962    0.000004821021511    0.0  283.88      -9.601392673889      -9.601392673889      -9.598695689056      -9.602403356339   0.0000   0.0000   0.0054  -2.0721
   3963    0.000004920440658    0.0  278.06      -9.601424457939      -9.601424457939      -9.598782801112      -9.602403337842   0.0000   0.0000   0.0054  -2.0558
   3964    0.000005094045655    0.0  272.34      -9.601455537901      -9.601455537901      -9.598868181294      -9.602403336188   0.0000   0.0000   0.0054  -2.0395
   3965    0.000005205262319    0.0  266.74      -9.601485896171      -9.601485896171      -9.598951714337      -9.602403345246   0.0000   0.0000   0.0054  -2.0232
   3966    0.000005093282038    0.0  261.27      -9.601515438522      -9.601515438522      -9.599033247634      -9.602403342531   0.0000   0.0000   0.0054  -2.0070
   3967    0.000004735817367    0.0  255.92      -9.601544158456      -9.601544158456      -9.599112786438      -9.602403323469   0.0000   0.0000   0.0054  -1.9907
   3968    0.000004280531777    0.0  250.69      -9.601572172217      -9.601572172217      -9.599190530432      -9.602403308887   0.0000   0.0000   0.0054  -1.9744
   3969    0.000003901127519    0.0  245.55      -9.601599570123      -9.601599570123      -9.599266696666      -9.602403313769   0.0000   0.0000   0.0054  -1.9582
   3970    0.000003665614227    0.0  240.51      -9.601626307591      -9.601626307591      -9.599341364192      -9.602403324326   0.0000   0.0000   0.0054  -1.9420
   3971    0.000003565266800    0.0  235.54      -9.601652300364      -9.601652300364      -9.599414524331      -9.602403318498   0.0000   0.0000   0.0054  -1.9258
   3972    0.000003608453645    0.0  230.66      -9.601677578420      -9.601677578420      -9.599486209685      -9.602403299210   0.0000   0.0000   0.0054  -1.9096
   3973    0.000003804652461    0.0  225.86      -9.601702262361      -9.601702262361      -9.599556475825      -9.602403289786   0.0000   0.0000   0.0054  -1.8935
   3974    0.000004064488967    0.0  221.16      -9.601726396406      -9.601726396406      -9.599625267131      -9.602403298122   0.0000   0.0000   0.0054  -1.8773
   3975    0.000004204142253    0.0  216.57      -9.601749894249      -9.601749894249      -9.599692409010      -9.602403304146   0.0000   0.0000   0.0054  -1.8612
   3976    0.000004103549810    0.0  212.08      -9.601772686219      -9.601772686219      -9.599757795469      -9.602403290240   0.0000   0.0000   0.0054  -1.8451
   3977    0.000003828039267    0.0  207.71      -9.601794848547      -9.601794848547      -9.599821536261      -9.602403268751   0.0000   0.0000   0.0053  -1.8291
   3978    0.000003550073789    0.0  203.43      -9.601816516849      -9.601816516849      -9.599883858901      -9.602403264348   0.0000   0.0000   0.0053  -1.8130
   3979    0.000003375542740    0.0  199.23      -9.601837709630      -9.601837709630      -9.599944896862      -9.602403277255   0.0000   0.0000   0.0053  -1.7970
   3980    0.000003296990119    0.0  195.12      -9.601858324854      -9.601858324854      -9.600004642401      -9.602403282902   0.0000   0.0000   0.0053  -1.7811
   3981    0.000003294893510    0.0  191.07      -9.601878312854      -9.601878312854      -9.600063085811      -9.602403268707   0.0000   0.0000   0.0053  -1.7651
   3982    0.000003395179846    0.0  187.09      -9.601897763681      -9.601897763681      -9.600120293135      -9.602403252404   0.0000   0.0000   0.0053  -1.7492
   3983    0.000003585149165    0.0  183.20      -9.601916779111      -9.601916779111      -9.600176296017      -9.602403254230   0.0000   0.0000   0.0053  -1.7334
   3984    0.000003737120891    0.0  179.40      -9.601935328648      -9.601935328648      -9.600230984819      -9.602403265551   0.0000   0.0000   0.0053  -1.7176
   3985    0.000003699671636    0.0  175.69      -9.601953313386      -9.601953313386      -9.600284212671      -9.602403262052   0.0000   0.0000   0.0053  -1.7018
   3986    0.000003463591916    0.0  172.07      -9.601970742303      -9.601970742303      -9.600335997873      -9.602403241607   0.0000   0.0000   0.0052  -1.6860
   3987    0.000003177275600    0.0  168.54      -9.601987749125      -9.601987749125      -9.600386541966      -9.602403228817   0.0000   0.0000   0.0052  -1.6703
   3988    0.000002985387712    0.0  165.09      -9.602004416798      -9.602004416798      -9.600436030417      -9.602403238487   0.0000   0.0000   0.0052  -1.6546
   3989    0.000002906636951    0.0  161.70      -9.602020670552      -9.602020670552      -9.600484487337      -9.602403253072   0.0000   0.0000   0.0052  -1.6390
   3990    0.000002894624260    0.0  158.37      -9.602036307226      -9.602036307226      -9.600531768225      -9.602403153875   0.0000   0.0000   0.0052  -1.6234
   3991    0.000002950568137    0.0  155.09      -9.602051542316      -9.602051542316      -9.600578088073      -9.602403134871   0.0000   0.0000   0.0052  -1.6079
   3992    0.000003099962488    0.0  151.89      -9.602066406344      -9.602066406344      -9.600623423861      -9.602403126815   0.0000   0.0000   0.0052  -1.5924
   3993    0.000003277897153    0.0  148.75      -9.602080942768      -9.602080942768      -9.600667740624      -9.602403136794   0.0000   0.0000   0.0051  -1.5769
   3994    0.000003328330351    0.0  145.70      -9.602095063677      -9.602095063677      -9.600710885757      -9.602403143117   0.0000   0.0000   0.0051  -1.5615
   3995    0.000003160565252    0.0  142.72      -9.602108706979      -9.602108706979      -9.600752778618      -9.602403129400   0.0000   0.0000   0.0051  -1.5462
   3996    0.000002857232887    0.0  139.83      -9.602121956030      -9.602121956030      -9.600793542907      -9.602403110588   0.0000   0.0000   0.0051  -1.5309
   3997    0.000002580957024    0.0  137.00      -9.602134934522      -9.602134934522      -9.600833389725      -9.602403110992   0.0000   0.0000   0.0051  -1.5156
   3998    0.000002407794185    0.0  134.23      -9.602147633077      -9.602147633077      -9.600872413128      -9.602403127349   0.0000   0.0000   0.0051  -1.5004
   3999    0.000002308120470    0.0  131.51      -9.602159931541      -9.602159931541      -9.600910575402      -9.602403133118   0.0000   0.0000   0.0050  -1.4853

 * Physical Quantities at step:  4000

   from rhoofr: total integrated electronic density
   in g-space =      8.000000   in r-space =     8.000000
     Total Electronic Pressure (GPa)       37.90721   4000
     Pressure of Nuclei (GPa)             0.08661   4000
     Pressure Total (GPa)            38.43054   4000


                total energy =       -9.60217178666 Hartree a.u.
              kinetic energy =        4.08748 Hartree a.u.
        electrostatic energy =      -10.49723 Hartree a.u.
                         esr =        0.00000 Hartree a.u.
                       eself =       25.53231 Hartree a.u.
      pseudopotential energy =       -0.21288 Hartree a.u.
  n-l pseudopotential energy =        2.07887 Hartree a.u.
 exchange-correlation energy =       -5.05842 Hartree a.u.
           average potential =        0.00000 Hartree a.u.



   Eigenvalues (eV), kp =   1 , spin =  1

   -5.67   -0.00   -0.00   -0.00    0.00    0.00    0.00    6.14    6.33    6.44
 
 
   CELL_PARAMETERS
   -5.17500000    0.00000000   -5.17500000
    0.00000000    5.17500000    5.17500000
    5.17500000    5.17500000    0.00000000

   System Density [g/cm^3] :              2.2709396404


   System Volume [A.U.^3] :            277.1794687500


   Center of mass square displacement (a.u.):   0.000000

   Total stress (GPa)
       38.41751917         0.43885866         0.93300747
        0.43885866        38.49000573         0.28934523
        0.93301655         0.28934734        38.38410239
   ATOMIC_POSITIONS
   Si     -0.19183816101039E-02     0.23965185651882E-01     0.94791086011599E-02
   Si      0.25752599277746E+01     0.25646719594058E+01     0.25719308525346E+01
 
   ATOMIC_VELOCITIES
   Si      0.60407674514306E-04    -0.13295567160990E-03    -0.50792749485471E-04
   Si     -0.60407674514265E-04     0.13295567160987E-03     0.50792749485390E-04
 
   Forces acting on atoms (au):
   Si     -0.33221251974060E-02    -0.13287831402568E-01    -0.72744706225848E-02
   Si      0.31415681133474E-02     0.13401382659623E-01     0.71618432534816E-02
 


   Partial temperatures (for each ionic specie) 
   Species  Temp (K)   Mean Square Displacement (a.u.)
        1   1.29E+02     1.8828E-03
 
  nfi     ekinc              temph  tempp     etot                 enthal               econs                econt              vnhh    xnhh0   vnhp    xnhp0
   4000    0.000002266351841    0.0  128.83      -9.602171786656      -9.602171786656      -9.600947867220      -9.602403117847   0.0000   0.0000   0.0050  -1.4702

   writing restart file (with schema): ./tmp/silicon_52.save/
     restart      :      0.08s CPU      0.13s WALL (      40 calls)


   Averaged Physical Quantities
                      accumulated      this run
   ekinc         :        0.00000       0.00000 (AU)
   ekin          :        4.09006       4.09006 (AU)
   epot          :      -15.76839     -15.76839 (AU)
   total energy  :       -9.59777      -9.59777 (AU)
   temperature   :      312.06356     312.06356 (K )
   enthalpy      :       -9.59777      -9.59777 (AU)
   econs         :       -9.59481      -9.59481 (AU)
   pressure      :       38.95477      38.95477 (Gpa)
   volume        :      277.17947     277.17947 (AU)



     Called by MAIN_LOOP:
     initialize   :      0.76s CPU      0.78s WALL (       1 calls)
     main_loop    :    225.23s CPU    226.67s WALL (    4000 calls)
     cpr_total    :    225.40s CPU    226.88s WALL (       1 calls)

     Called by INIT_RUN:
     init_readfil :      0.01s CPU      0.01s WALL (       1 calls)

     Called by CPR:
     cpr_md       :    225.39s CPU    226.88s WALL (    4000 calls)
     move_electro :    220.89s CPU    222.24s WALL (    4000 calls)

     Called by move_electrons:
     rhoofr       :    126.47s CPU    127.25s WALL (    4000 calls)
     vofrho       :     14.50s CPU     14.65s WALL (    4000 calls)
     dforce       :      1.12s CPU      1.12s WALL (   20000 calls)
     calphi       :      0.06s CPU      0.06s WALL (    4000 calls)
     newd         :     76.63s CPU     77.04s WALL (    4000 calls)
     nlfl         :      0.05s CPU      0.05s WALL (    4000 calls)

     Called by ortho:
     ortho_iter   :      0.57s CPU      0.58s WALL (    4000 calls)
     rsg          :      1.95s CPU      1.99s WALL (    4000 calls)
     rhoset       :      0.14s CPU      0.14s WALL (    4000 calls)
     sigset       :      0.07s CPU      0.07s WALL (    4000 calls)
     tauset       :      0.07s CPU      0.07s WALL (    4000 calls)
     ortho        :      2.95s CPU      3.00s WALL (    4000 calls)
     updatc       :      0.12s CPU      0.13s WALL (    4000 calls)

     Small boxes:
     rhov         :      6.23s CPU      6.24s WALL (    4000 calls)
     fftb         :     64.80s CPU     65.14s WALL (  428001 calls)
     set_cc       :      1.71s CPU      1.72s WALL (    4000 calls)
     forcecc      :      4.97s CPU      5.03s WALL (    4000 calls)

     Low-level routines:
     prefor       :      0.06s CPU      0.06s WALL (   16001 calls)
     nlfq         :      0.15s CPU      0.15s WALL (    4000 calls)
     nlsm1        :      0.00s CPU      0.00s WALL (    4001 calls)
     nlsm2        :      0.12s CPU      0.12s WALL (    4000 calls)
     nlsm1us      :      0.06s CPU      0.06s WALL (    8000 calls)
     fft          :      5.34s CPU      5.39s WALL (   80040 calls)
     ffts         :      0.26s CPU      0.26s WALL (    8000 calls)
     fftw         :      1.25s CPU      1.28s WALL (   60000 calls)
     betagx       :      0.36s CPU      0.36s WALL (       1 calls)
     qradx        :      0.23s CPU      0.23s WALL (       1 calls)
     nlinit       :      0.74s CPU      0.76s WALL (       1 calls)
     init_dim     :      0.00s CPU      0.00s WALL (       1 calls)
     newnlinit    :      0.05s CPU      0.07s WALL (       1 calls)
     from_restart :      0.00s CPU      0.00s WALL (       1 calls)
     strucf       :      0.03s CPU      0.03s WALL (    4001 calls)
     calbec       :      0.01s CPU      0.01s WALL (    4001 calls)
     caldbec_bgrp :      0.51s CPU      0.52s WALL (    4001 calls)
     exch_corr    :      7.52s CPU      7.59s WALL (    4000 calls)
 
 
     CP           :   3m46.18s CPU   3m47.70s WALL

 
   This run was terminated on:  19:23:17  13Mar2026            

=------------------------------------------------------------------------------=
   JOB DONE.
=------------------------------------------------------------------------------=
